 vasp.6.1.2 22Jul20 (build Oct 22 2020 12:12:26) complex                        
  
 executed on                Eagle date 2020.10.27  19:03:07
 running on   72 total cores
 distrk:  each k-point on   18 cores,    4 groups
 distr:  one band on NCORE=   1 cores,   18 groups


--------------------------------------------------------------------------------------------------------


 INCAR:
 POTCAR:   PAW_PBE Cu 05Jan2001                   
 POTCAR:   PAW_PBE In_d 06Sep2000                 
 POTCAR:   PAW_PBE Se 06Sep2000                   
 -----------------------------------------------------------------------------
|                                                                             |
|           W    W    AA    RRRRR   N    N  II  N    N   GGGG   !!!           |
|           W    W   A  A   R    R  NN   N  II  NN   N  G    G  !!!           |
|           W    W  A    A  R    R  N N  N  II  N N  N  G       !!!           |
|           W WW W  AAAAAA  RRRRR   N  N N  II  N  N N  G  GGG   !            |
|           WW  WW  A    A  R   R   N   NN  II  N   NN  G    G                |
|           W    W  A    A  R    R  N    N  II  N    N   GGGG   !!!           |
|                                                                             |
|     For optimal performance we recommend to set                             |
|       NCORE = 4 - approx SQRT(number of cores).                             |
|     NCORE specifies how many cores store one orbital (NPAR=cpu/NCORE).      |
|     This setting can greatly improve the performance of VASP for DFT.       |
|     The default, NCORE=1 might be grossly inefficient on modern             |
|     multi-core architectures or massively parallel machines. Do your        |
|     own testing!!!!                                                         |
|     Unfortunately you need to use the default for GW and RPA                |
|     calculations (for HF NCORE is supported but not extensively tested      |
|     yet).                                                                   |
|                                                                             |
 -----------------------------------------------------------------------------

 POTCAR:   PAW_PBE Cu 05Jan2001                   
   VRHFIN =Cu: d10 p1                                                                               
   LEXCH  = PE                                                                                      
   EATOM  =  1390.9800 eV,  102.2341 Ry                                                             
                                                                                                    
   TITEL  = PAW_PBE Cu 05Jan2001                                                                    
   LULTRA =        F    use ultrasoft PP ?                                                          
   IUNSCR =        1    unscreen: 0-lin 1-nonlin 2-no                                               
   RPACOR =    2.000    partial core radius                                                         
   POMASS =   63.546; ZVAL   =   11.000    mass and valenz                                          
   RCORE  =    2.300    outmost cutoff radius                                                       
   RWIGS  =    2.480; RWIGS  =    1.312    wigner-seitz radius (au A)                               
   ENMAX  =  273.214; ENMIN  =  204.910 eV                                                          
   RCLOC  =    1.712    cutoff for local pot                                                        
   LCOR   =        T    correct aug charges                                                         
   LPAW   =        T    paw PP                                                                      
   EAUG   =  516.456                                                                                
   DEXC   =    -.008                                                                                
   RMAX   =    2.789    core radius for proj-oper                                                   
   RAUG   =    1.300    factor for augmentation sphere                                              
   RDEP   =    2.302    radius for radial grids                                                     
   QCUT   =   -4.481; QGAM   =    8.962    optimization parameters                                  
                                                                                                    
   Description                                                                                      
     l     E      TYP  RCUT    TYP  RCUT                                                            
     2   .000     23  2.300                                                                         
     2   .000     23  2.300                                                                         
     0   .000     23  2.300                                                                         
     0   .000     23  2.300                                                                         
     1  -.200     23  2.300                                                                         
     1   .000     23  2.300                                                                         
     3   .000      7   .000                                                                         
  local pseudopotential read in
  partial core-charges read in
  atomic valenz-charges read in
  non local Contribution for L=           2  read in
    real space projection operators read in
  non local Contribution for L=           2  read in
    real space projection operators read in
  non local Contribution for L=           0  read in
    real space projection operators read in
  non local Contribution for L=           0  read in
    real space projection operators read in
  non local Contribution for L=           1  read in
    real space projection operators read in
  non local Contribution for L=           1  read in
    real space projection operators read in
    PAW grid and wavefunctions read in
 
   number of l-projection  operators is LMAX  =           6
   number of lm-projection operators is LMMAX =          18
 
 POTCAR:   PAW_PBE In_d 06Sep2000                 
   VRHFIN =In: s2p1                                                                                 
   LEXCH  = PE                                                                                      
   EATOM  =  1576.8738 eV,  115.8970 Ry                                                             
                                                                                                    
   TITEL  = PAW_PBE In_d 06Sep2000                                                                  
   LULTRA =        F    use ultrasoft PP ?                                                          
   IUNSCR =        1    unscreen: 0-lin 1-nonlin 2-no                                               
   RPACOR =    2.200    partial core radius                                                         
   POMASS =  114.820; ZVAL   =   13.000    mass and valenz                                          
   RCORE  =    2.500    outmost cutoff radius                                                       
   RWIGS  =    3.170; RWIGS  =    1.677    wigner-seitz radius (au A)                               
   ENMAX  =  239.218; ENMIN  =  179.413 eV                                                          
   ICORE  =        3    local potential                                                             
   LCOR   =        T    correct aug charges                                                         
   LPAW   =        T    paw PP                                                                      
   EAUG   =  449.704                                                                                
   DEXC   =    -.003                                                                                
   RMAX   =    2.981    core radius for proj-oper                                                   
   RAUG   =    1.300    factor for augmentation sphere                                              
   RDEP   =    2.630    radius for radial grids                                                     
   QCUT   =   -4.193; QGAM   =    8.386    optimization parameters                                  
                                                                                                    
   Description                                                                                      
     l     E      TYP  RCUT    TYP  RCUT                                                            
     2   .000     23  2.500                                                                         
     2  -.100     23  2.500                                                                         
     0   .000     23  2.500                                                                         
     0   .000     23  2.500                                                                         
     1   .000     23  2.500                                                                         
     1   .000     23  2.500                                                                         
     3  -.100      7  2.500                                                                         
  local pseudopotential read in
  partial core-charges read in
  atomic valenz-charges read in
  non local Contribution for L=           2  read in
    real space projection operators read in
  non local Contribution for L=           2  read in
    real space projection operators read in
  non local Contribution for L=           0  read in
    real space projection operators read in
  non local Contribution for L=           0  read in
    real space projection operators read in
  non local Contribution for L=           1  read in
    real space projection operators read in
  non local Contribution for L=           1  read in
    real space projection operators read in
    PAW grid and wavefunctions read in
 
   number of l-projection  operators is LMAX  =           6
   number of lm-projection operators is LMMAX =          18
 
 POTCAR:   PAW_PBE Se 06Sep2000                   
   VRHFIN =Se: s2p4                                                                                 
   LEXCH  = PE                                                                                      
   EATOM  =   256.9644 eV,   18.8864 Ry                                                             
                                                                                                    
   TITEL  = PAW_PBE Se 06Sep2000                                                                    
   LULTRA =        F    use ultrasoft PP ?                                                          
   IUNSCR =        1    unscreen: 0-lin 1-nonlin 2-no                                               
   RPACOR =    1.900    partial core radius                                                         
   POMASS =   78.960; ZVAL   =    6.000    mass and valenz                                          
   RCORE  =    2.100    outmost cutoff radius                                                       
   RWIGS  =    2.200; RWIGS  =    1.164    wigner-seitz radius (au A)                               
   ENMAX  =  211.534; ENMIN  =  158.651 eV                                                          
   ICORE  =        3    local potential                                                             
   LCOR   =        T    correct aug charges                                                         
   LPAW   =        T    paw PP                                                                      
   EAUG   =  446.842                                                                                
   DEXC   =    -.031                                                                                
   RMAX   =    3.170    core radius for proj-oper                                                   
   RAUG   =    1.300    factor for augmentation sphere                                              
   RDEP   =    2.177    radius for radial grids                                                     
   QCUT   =   -3.943; QGAM   =    7.886    optimization parameters                                  
                                                                                                    
   Description                                                                                      
     l     E      TYP  RCUT    TYP  RCUT                                                            
     0   .000     23  2.100                                                                         
     0   .000     23  2.100                                                                         
     1   .000     23  2.100                                                                         
     1   .000     23  2.100                                                                         
     2   .000     23  2.100                                                                         
     3  -.100      7  2.100                                                                         
  local pseudopotential read in
  partial core-charges read in
  atomic valenz-charges read in
  non local Contribution for L=           0  read in
    real space projection operators read in
  non local Contribution for L=           0  read in
    real space projection operators read in
  non local Contribution for L=           1  read in
    real space projection operators read in
  non local Contribution for L=           1  read in
    real space projection operators read in
  non local Contribution for L=           2  read in
    real space projection operators read in
    PAW grid and wavefunctions read in
 
   number of l-projection  operators is LMAX  =           5
   number of lm-projection operators is LMMAX =          13
 
 PAW_PBE Cu 05Jan2001                   :
 energy of atom  1       EATOM=-1390.9800
 kinetic energy error for atom=    0.0323 (will be added to EATOM!!)
 PAW_PBE In_d 06Sep2000                 :
 energy of atom  2       EATOM=-1576.8738
 kinetic energy error for atom=    0.0380 (will be added to EATOM!!)
 PAW_PBE Se 06Sep2000                   :
 energy of atom  3       EATOM= -256.9644
 kinetic energy error for atom=    0.0040 (will be added to EATOM!!)
 
 
 POSCAR: Cu1-In1-Se2 'I -4 2 d'  #122
  positions in direct lattice
  No initial velocities read in
 exchange correlation table for  LEXCH =        8
   RHO(1)=    0.500       N(1)  =     2000
   RHO(2)=  100.500       N(2)  =     4000
 


--------------------------------------------------------------------------------------------------------


 ion  position               nearest neighbor table
   1  0.000  0.500  0.250-   9 2.46  11 2.46  13 2.46  14 2.46
   2  0.000  0.000  0.000-  10 2.46  12 2.46  13 2.46  14 2.46
   3  0.500  0.000  0.750-  10 2.46  12 2.46  15 2.46  16 2.46
   4  0.500  0.500  0.500-   9 2.46  11 2.46  15 2.46  16 2.46
   5  0.000  0.500  0.750-  15 2.56  16 2.56  10 2.56  12 2.56
   6  0.000  0.000  0.500-  15 2.56  16 2.56   9 2.56  11 2.56
   7  0.500  0.000  0.250-  13 2.56  14 2.56   9 2.56  11 2.56
   8  0.500  0.500  0.000-  13 2.56  14 2.56  10 2.56  12 2.56
   9  0.750  0.265  0.375-   1 2.46   4 2.46   6 2.56   7 2.56
  10  0.250  0.765  0.875-   2 2.46   3 2.46   5 2.56   8 2.56
  11  0.250  0.735  0.375-   1 2.46   4 2.46   6 2.56   7 2.56
  12  0.750  0.235  0.875-   2 2.46   3 2.46   5 2.56   8 2.56
  13  0.235  0.250  0.125-   1 2.46   2 2.46   7 2.56   8 2.56
  14  0.765  0.750  0.125-   1 2.46   2 2.46   7 2.56   8 2.56
  15  0.735  0.750  0.625-   3 2.46   4 2.46   5 2.56   6 2.56
  16  0.265  0.250  0.625-   3 2.46   4 2.46   5 2.56   6 2.56
 
  LATTYP: Found a simple tetragonal cell.
 ALAT       =     5.7824000000
 C/A-ratio  =     2.0094078583
  
  Lattice vectors:
  
 A1 = (   5.7824000000,   0.0000000000,   0.0000000000)
 A2 = (   0.0000000000,   5.7824000000,   0.0000000000)
 A3 = (   0.0000000000,   0.0000000000,  11.6192000000)


Analysis of symmetry for initial positions (statically):
=====================================================================
 Subroutine PRICEL returns following result:
 
  LATTYP: Found a body centered tetragonal cell.
 ALAT       =     5.7824000000
 C/A-ratio  =     2.0094078583
  
  Lattice vectors:
  
 A1 = (   2.8912000000,  -2.8912000000,   5.8096000000)
 A2 = (  -2.8912000000,   2.8912000000,   5.8096000000)
 A3 = (  -2.8912000000,  -2.8912000000,  -5.8096000000)
 
   2 primitive cells build up your supercell.
 

 Routine SETGRP: Setting up the symmetry group for a 
 simple tetragonal supercell.


 Subroutine GETGRP returns: Found  8 space group operations
 (whereof  4 operations were pure point group operations)
 out of a pool of 16 trial point group operations.


The static configuration has the point symmetry S_4 .
 The point group associated with its full space group is D_2d.


Analysis of symmetry for dynamics (positions and initial velocities):
=====================================================================
 Subroutine PRICEL returns following result:
 
  LATTYP: Found a body centered tetragonal cell.
 ALAT       =     5.7824000000
 C/A-ratio  =     2.0094078583
  
  Lattice vectors:
  
 A1 = (   2.8912000000,  -2.8912000000,   5.8096000000)
 A2 = (  -2.8912000000,   2.8912000000,   5.8096000000)
 A3 = (  -2.8912000000,  -2.8912000000,  -5.8096000000)
 
   2 primitive cells build up your supercell.
 

 Routine SETGRP: Setting up the symmetry group for a 
 simple tetragonal supercell.


 Subroutine GETGRP returns: Found  8 space group operations
 (whereof  4 operations were pure point group operations)
 out of a pool of 16 trial point group operations.


The dynamic configuration has the point symmetry S_4 .
 The point group associated with its full space group is D_2d.


 Subroutine INISYM returns: Found  8 space group operations
 (whereof  4 operations are pure point group operations),
 and found     2 'primitive' translations


----------------------------------------------------------------------------------------

                                     Primitive cell                                     

  volume of cell :     194.2507

  direct lattice vectors                    reciprocal lattice vectors
     2.891200000 -2.891200000  5.809600000     0.000000000 -0.172938572  0.086064445
    -2.891200000  2.891200000  5.809600000    -0.172938572 -0.000000000  0.086064445
    -2.891200000 -2.891200000 -5.809600000    -0.172938572 -0.172938572  0.000000000

  length of vectors
     7.104190808  7.104190808  7.104190808     0.193170491  0.193170491  0.244572074

  position of ions in fractional coordinates (direct lattice)
     0.750000000  0.250000000  0.500000000
     0.000000000  0.000000000  0.000000000
     0.500000000  0.500000000  0.000000000
     0.250000000  0.750000000  0.500000000
     0.110000000  0.625000000  0.985000000
     0.640000000  0.125000000  0.015000000
     0.875000000  0.890000000  0.515000000
     0.375000000  0.360000000  0.485000000

  ion indices of the primitive-cell ions
   primitive index   ion index
                 1           1
                 2           2
                 3           6
                 4           7
                 5           9
                 6          11
                 7          13
                 8          14

----------------------------------------------------------------------------------------

 
 
 KPOINTS: KPOINTS                                 

Automatic generation of k-mesh.
Space group operators:
 irot       det(A)        alpha          n_x          n_y          n_z        tau_x        tau_y        tau_z
    1     1.000000     0.000000     1.000000     0.000000     0.000000     0.000000     0.000000     0.000000
    2    -1.000000    90.000000     0.000000     0.000000    -1.000000     0.000000     0.000000     0.000000
    3     1.000000   180.000000     0.000000     0.000000     1.000000     0.000000     0.000000     0.000000
    4    -1.000000    90.000000     0.000000     0.000000     1.000000     0.000000     0.000000     0.000000
    5     1.000000   180.000000     0.000000     1.000000     0.000000     0.000000     0.500000     0.250000
    6    -1.000000   180.000000     0.707107     0.707107     0.000000     0.000000     0.500000     0.250000
    7     1.000000   180.000000     1.000000     0.000000     0.000000     0.000000     0.500000     0.250000
    8    -1.000000   180.000000     0.707107    -0.707107     0.000000     0.000000     0.500000     0.250000
 
 Subroutine IBZKPT returns following result:
 ===========================================
 
 Found     63 irreducible k-points:
 
 Following reciprocal coordinates:
            Coordinates               Weight
  0.000000  0.000000  0.000000      1.000000
  0.100000  0.000000  0.000000      4.000000
  0.200000  0.000000  0.000000      4.000000
  0.300000  0.000000  0.000000      4.000000
  0.400000  0.000000  0.000000      4.000000
  0.500000  0.000000  0.000000      2.000000
  0.100000  0.100000  0.000000      4.000000
  0.200000  0.100000  0.000000      8.000000
  0.300000  0.100000  0.000000      8.000000
  0.400000  0.100000  0.000000      8.000000
  0.500000  0.100000  0.000000      4.000000
  0.200000  0.200000  0.000000      4.000000
  0.300000  0.200000  0.000000      8.000000
  0.400000  0.200000  0.000000      8.000000
  0.500000  0.200000  0.000000      4.000000
  0.300000  0.300000  0.000000      4.000000
  0.400000  0.300000  0.000000      8.000000
  0.500000  0.300000  0.000000      4.000000
  0.400000  0.400000  0.000000      4.000000
  0.500000  0.400000  0.000000      4.000000
  0.500000  0.500000  0.000000      1.000000
  0.000000  0.000000  0.200000      2.000000
  0.100000  0.000000  0.200000      8.000000
  0.200000  0.000000  0.200000      8.000000
  0.300000  0.000000  0.200000      8.000000
  0.400000  0.000000  0.200000      8.000000
  0.500000  0.000000  0.200000      4.000000
  0.100000  0.100000  0.200000      8.000000
  0.200000  0.100000  0.200000     16.000000
  0.300000  0.100000  0.200000     16.000000
  0.400000  0.100000  0.200000     16.000000
  0.500000  0.100000  0.200000      8.000000
  0.200000  0.200000  0.200000      8.000000
  0.300000  0.200000  0.200000     16.000000
  0.400000  0.200000  0.200000     16.000000
  0.500000  0.200000  0.200000      8.000000
  0.300000  0.300000  0.200000      8.000000
  0.400000  0.300000  0.200000     16.000000
  0.500000  0.300000  0.200000      8.000000
  0.400000  0.400000  0.200000      8.000000
  0.500000  0.400000  0.200000      8.000000
  0.500000  0.500000  0.200000      2.000000
  0.000000  0.000000  0.400000      2.000000
  0.100000  0.000000  0.400000      8.000000
  0.200000  0.000000  0.400000      8.000000
  0.300000  0.000000  0.400000      8.000000
  0.400000  0.000000  0.400000      8.000000
  0.500000  0.000000  0.400000      4.000000
  0.100000  0.100000  0.400000      8.000000
  0.200000  0.100000  0.400000     16.000000
  0.300000  0.100000  0.400000     16.000000
  0.400000  0.100000  0.400000     16.000000
  0.500000  0.100000  0.400000      8.000000
  0.200000  0.200000  0.400000      8.000000
  0.300000  0.200000  0.400000     16.000000
  0.400000  0.200000  0.400000     16.000000
  0.500000  0.200000  0.400000      8.000000
  0.300000  0.300000  0.400000      8.000000
  0.400000  0.300000  0.400000     16.000000
  0.500000  0.300000  0.400000      8.000000
  0.400000  0.400000  0.400000      8.000000
  0.500000  0.400000  0.400000      8.000000
  0.500000  0.500000  0.400000      2.000000
 
 Following cartesian coordinates:
            Coordinates               Weight
  0.000000  0.000000  0.000000      1.000000
  0.017294  0.000000  0.000000      4.000000
  0.034588  0.000000  0.000000      4.000000
  0.051882  0.000000  0.000000      4.000000
  0.069175  0.000000  0.000000      4.000000
  0.086469  0.000000  0.000000      2.000000
  0.017294  0.017294  0.000000      4.000000
  0.034588  0.017294  0.000000      8.000000
  0.051882  0.017294  0.000000      8.000000
  0.069175  0.017294  0.000000      8.000000
  0.086469  0.017294  0.000000      4.000000
  0.034588  0.034588  0.000000      4.000000
  0.051882  0.034588  0.000000      8.000000
  0.069175  0.034588  0.000000      8.000000
  0.086469  0.034588  0.000000      4.000000
  0.051882  0.051882  0.000000      4.000000
  0.069175  0.051882  0.000000      8.000000
  0.086469  0.051882  0.000000      4.000000
  0.069175  0.069175  0.000000      4.000000
  0.086469  0.069175  0.000000      4.000000
  0.086469  0.086469  0.000000      1.000000
  0.000000  0.000000  0.017213      2.000000
  0.017294  0.000000  0.017213      8.000000
  0.034588  0.000000  0.017213      8.000000
  0.051882  0.000000  0.017213      8.000000
  0.069175  0.000000  0.017213      8.000000
  0.086469  0.000000  0.017213      4.000000
  0.017294  0.017294  0.017213      8.000000
  0.034588  0.017294  0.017213     16.000000
  0.051882  0.017294  0.017213     16.000000
  0.069175  0.017294  0.017213     16.000000
  0.086469  0.017294  0.017213      8.000000
  0.034588  0.034588  0.017213      8.000000
  0.051882  0.034588  0.017213     16.000000
  0.069175  0.034588  0.017213     16.000000
  0.086469  0.034588  0.017213      8.000000
  0.051882  0.051882  0.017213      8.000000
  0.069175  0.051882  0.017213     16.000000
  0.086469  0.051882  0.017213      8.000000
  0.069175  0.069175  0.017213      8.000000
  0.086469  0.069175  0.017213      8.000000
  0.086469  0.086469  0.017213      2.000000
  0.000000  0.000000  0.034426      2.000000
  0.017294  0.000000  0.034426      8.000000
  0.034588  0.000000  0.034426      8.000000
  0.051882  0.000000  0.034426      8.000000
  0.069175  0.000000  0.034426      8.000000
  0.086469  0.000000  0.034426      4.000000
  0.017294  0.017294  0.034426      8.000000
  0.034588  0.017294  0.034426     16.000000
  0.051882  0.017294  0.034426     16.000000
  0.069175  0.017294  0.034426     16.000000
  0.086469  0.017294  0.034426      8.000000
  0.034588  0.034588  0.034426      8.000000
  0.051882  0.034588  0.034426     16.000000
  0.069175  0.034588  0.034426     16.000000
  0.086469  0.034588  0.034426      8.000000
  0.051882  0.051882  0.034426      8.000000
  0.069175  0.051882  0.034426     16.000000
  0.086469  0.051882  0.034426      8.000000
  0.069175  0.069175  0.034426      8.000000
  0.086469  0.069175  0.034426      8.000000
  0.086469  0.086469  0.034426      2.000000
 
 
 Subroutine IBZKPT_HF returns following result:
 ==============================================
 
 Found    500 k-points in 1st BZ
 the following    500 k-points will be used (e.g. in the exchange kernel)
 Following reciprocal coordinates:   # in IRBZ
  0.000000  0.000000  0.000000    0.00200000   1 t-inv F
  0.100000  0.000000  0.000000    0.00200000   2 t-inv F
  0.200000  0.000000  0.000000    0.00200000   3 t-inv F
  0.300000  0.000000  0.000000    0.00200000   4 t-inv F
  0.400000  0.000000  0.000000    0.00200000   5 t-inv F
  0.500000  0.000000  0.000000    0.00200000   6 t-inv F
  0.100000  0.100000  0.000000    0.00200000   7 t-inv F
  0.200000  0.100000  0.000000    0.00200000   8 t-inv F
  0.300000  0.100000  0.000000    0.00200000   9 t-inv F
  0.400000  0.100000  0.000000    0.00200000  10 t-inv F
  0.500000  0.100000  0.000000    0.00200000  11 t-inv F
  0.200000  0.200000  0.000000    0.00200000  12 t-inv F
  0.300000  0.200000  0.000000    0.00200000  13 t-inv F
  0.400000  0.200000  0.000000    0.00200000  14 t-inv F
  0.500000  0.200000  0.000000    0.00200000  15 t-inv F
  0.300000  0.300000  0.000000    0.00200000  16 t-inv F
  0.400000  0.300000  0.000000    0.00200000  17 t-inv F
  0.500000  0.300000  0.000000    0.00200000  18 t-inv F
  0.400000  0.400000  0.000000    0.00200000  19 t-inv F
  0.500000  0.400000  0.000000    0.00200000  20 t-inv F
  0.500000  0.500000  0.000000    0.00200000  21 t-inv F
  0.000000  0.000000  0.200000    0.00200000  22 t-inv F
  0.100000  0.000000  0.200000    0.00200000  23 t-inv F
  0.200000  0.000000  0.200000    0.00200000  24 t-inv F
  0.300000  0.000000  0.200000    0.00200000  25 t-inv F
  0.400000  0.000000  0.200000    0.00200000  26 t-inv F
  0.500000  0.000000  0.200000    0.00200000  27 t-inv F
  0.100000  0.100000  0.200000    0.00200000  28 t-inv F
  0.200000  0.100000  0.200000    0.00200000  29 t-inv F
  0.300000  0.100000  0.200000    0.00200000  30 t-inv F
  0.400000  0.100000  0.200000    0.00200000  31 t-inv F
  0.500000  0.100000  0.200000    0.00200000  32 t-inv F
  0.200000  0.200000  0.200000    0.00200000  33 t-inv F
  0.300000  0.200000  0.200000    0.00200000  34 t-inv F
  0.400000  0.200000  0.200000    0.00200000  35 t-inv F
  0.500000  0.200000  0.200000    0.00200000  36 t-inv F
  0.300000  0.300000  0.200000    0.00200000  37 t-inv F
  0.400000  0.300000  0.200000    0.00200000  38 t-inv F
  0.500000  0.300000  0.200000    0.00200000  39 t-inv F
  0.400000  0.400000  0.200000    0.00200000  40 t-inv F
  0.500000  0.400000  0.200000    0.00200000  41 t-inv F
  0.500000  0.500000  0.200000    0.00200000  42 t-inv F
  0.000000  0.000000  0.400000    0.00200000  43 t-inv F
  0.100000  0.000000  0.400000    0.00200000  44 t-inv F
  0.200000  0.000000  0.400000    0.00200000  45 t-inv F
  0.300000  0.000000  0.400000    0.00200000  46 t-inv F
  0.400000  0.000000  0.400000    0.00200000  47 t-inv F
  0.500000  0.000000  0.400000    0.00200000  48 t-inv F
  0.100000  0.100000  0.400000    0.00200000  49 t-inv F
  0.200000  0.100000  0.400000    0.00200000  50 t-inv F
  0.300000  0.100000  0.400000    0.00200000  51 t-inv F
  0.400000  0.100000  0.400000    0.00200000  52 t-inv F
  0.500000  0.100000  0.400000    0.00200000  53 t-inv F
  0.200000  0.200000  0.400000    0.00200000  54 t-inv F
  0.300000  0.200000  0.400000    0.00200000  55 t-inv F
  0.400000  0.200000  0.400000    0.00200000  56 t-inv F
  0.500000  0.200000  0.400000    0.00200000  57 t-inv F
  0.300000  0.300000  0.400000    0.00200000  58 t-inv F
  0.400000  0.300000  0.400000    0.00200000  59 t-inv F
  0.500000  0.300000  0.400000    0.00200000  60 t-inv F
  0.400000  0.400000  0.400000    0.00200000  61 t-inv F
  0.500000  0.400000  0.400000    0.00200000  62 t-inv F
  0.500000  0.500000  0.400000    0.00200000  63 t-inv F
  0.000000 -0.100000  0.000000    0.00200000   2 t-inv F
 -0.100000  0.000000  0.000000    0.00200000   2 t-inv F
  0.000000  0.100000  0.000000    0.00200000   2 t-inv F
  0.000000 -0.200000  0.000000    0.00200000   3 t-inv F
 -0.200000  0.000000  0.000000    0.00200000   3 t-inv F
  0.000000  0.200000  0.000000    0.00200000   3 t-inv F
  0.000000 -0.300000  0.000000    0.00200000   4 t-inv F
 -0.300000  0.000000  0.000000    0.00200000   4 t-inv F
  0.000000  0.300000  0.000000    0.00200000   4 t-inv F
  0.000000 -0.400000  0.000000    0.00200000   5 t-inv F
 -0.400000  0.000000  0.000000    0.00200000   5 t-inv F
  0.000000  0.400000  0.000000    0.00200000   5 t-inv F
  0.000000 -0.500000  0.000000    0.00200000   6 t-inv F
  0.100000 -0.100000  0.000000    0.00200000   7 t-inv F
 -0.100000 -0.100000  0.000000    0.00200000   7 t-inv F
 -0.100000  0.100000  0.000000    0.00200000   7 t-inv F
  0.100000 -0.200000  0.000000    0.00200000   8 t-inv F
 -0.200000 -0.100000  0.000000    0.00200000   8 t-inv F
 -0.100000  0.200000  0.000000    0.00200000   8 t-inv F
 -0.200000  0.100000  0.000000    0.00200000   8 t-inv F
 -0.100000 -0.200000  0.000000    0.00200000   8 t-inv F
  0.200000 -0.100000  0.000000    0.00200000   8 t-inv F
  0.100000  0.200000  0.000000    0.00200000   8 t-inv F
  0.100000 -0.300000  0.000000    0.00200000   9 t-inv F
 -0.300000 -0.100000  0.000000    0.00200000   9 t-inv F
 -0.100000  0.300000  0.000000    0.00200000   9 t-inv F
 -0.300000  0.100000  0.000000    0.00200000   9 t-inv F
 -0.100000 -0.300000  0.000000    0.00200000   9 t-inv F
  0.300000 -0.100000  0.000000    0.00200000   9 t-inv F
  0.100000  0.300000  0.000000    0.00200000   9 t-inv F
  0.100000 -0.400000  0.000000    0.00200000  10 t-inv F
 -0.400000 -0.100000  0.000000    0.00200000  10 t-inv F
 -0.100000  0.400000  0.000000    0.00200000  10 t-inv F
 -0.400000  0.100000  0.000000    0.00200000  10 t-inv F
 -0.100000 -0.400000  0.000000    0.00200000  10 t-inv F
  0.400000 -0.100000  0.000000    0.00200000  10 t-inv F
  0.100000  0.400000  0.000000    0.00200000  10 t-inv F
  0.100000 -0.500000  0.000000    0.00200000  11 t-inv F
 -0.500000 -0.100000  0.000000    0.00200000  11 t-inv F
 -0.100000  0.500000  0.000000    0.00200000  11 t-inv F
  0.200000 -0.200000  0.000000    0.00200000  12 t-inv F
 -0.200000 -0.200000  0.000000    0.00200000  12 t-inv F
 -0.200000  0.200000  0.000000    0.00200000  12 t-inv F
  0.200000 -0.300000  0.000000    0.00200000  13 t-inv F
 -0.300000 -0.200000  0.000000    0.00200000  13 t-inv F
 -0.200000  0.300000  0.000000    0.00200000  13 t-inv F
 -0.300000  0.200000  0.000000    0.00200000  13 t-inv F
 -0.200000 -0.300000  0.000000    0.00200000  13 t-inv F
  0.300000 -0.200000  0.000000    0.00200000  13 t-inv F
  0.200000  0.300000  0.000000    0.00200000  13 t-inv F
  0.200000 -0.400000  0.000000    0.00200000  14 t-inv F
 -0.400000 -0.200000  0.000000    0.00200000  14 t-inv F
 -0.200000  0.400000  0.000000    0.00200000  14 t-inv F
 -0.400000  0.200000  0.000000    0.00200000  14 t-inv F
 -0.200000 -0.400000  0.000000    0.00200000  14 t-inv F
  0.400000 -0.200000  0.000000    0.00200000  14 t-inv F
  0.200000  0.400000  0.000000    0.00200000  14 t-inv F
  0.200000 -0.500000  0.000000    0.00200000  15 t-inv F
 -0.500000 -0.200000  0.000000    0.00200000  15 t-inv F
 -0.200000  0.500000  0.000000    0.00200000  15 t-inv F
  0.300000 -0.300000  0.000000    0.00200000  16 t-inv F
 -0.300000 -0.300000  0.000000    0.00200000  16 t-inv F
 -0.300000  0.300000  0.000000    0.00200000  16 t-inv F
  0.300000 -0.400000  0.000000    0.00200000  17 t-inv F
 -0.400000 -0.300000  0.000000    0.00200000  17 t-inv F
 -0.300000  0.400000  0.000000    0.00200000  17 t-inv F
 -0.400000  0.300000  0.000000    0.00200000  17 t-inv F
 -0.300000 -0.400000  0.000000    0.00200000  17 t-inv F
  0.400000 -0.300000  0.000000    0.00200000  17 t-inv F
  0.300000  0.400000  0.000000    0.00200000  17 t-inv F
  0.300000 -0.500000  0.000000    0.00200000  18 t-inv F
 -0.500000 -0.300000  0.000000    0.00200000  18 t-inv F
 -0.300000  0.500000  0.000000    0.00200000  18 t-inv F
  0.400000 -0.400000  0.000000    0.00200000  19 t-inv F
 -0.400000 -0.400000  0.000000    0.00200000  19 t-inv F
 -0.400000  0.400000  0.000000    0.00200000  19 t-inv F
  0.400000 -0.500000  0.000000    0.00200000  20 t-inv F
 -0.500000 -0.400000  0.000000    0.00200000  20 t-inv F
 -0.400000  0.500000  0.000000    0.00200000  20 t-inv F
  0.000000  0.000000 -0.200000    0.00200000  22 t-inv F
  0.000000 -0.100000 -0.200000    0.00200000  23 t-inv F
 -0.100000  0.000000  0.200000    0.00200000  23 t-inv F
  0.000000  0.100000 -0.200000    0.00200000  23 t-inv F
 -0.100000  0.000000 -0.200000    0.00200000  23 t-inv F
  0.000000 -0.100000  0.200000    0.00200000  23 t-inv F
  0.100000  0.000000 -0.200000    0.00200000  23 t-inv F
  0.000000  0.100000  0.200000    0.00200000  23 t-inv F
  0.000000 -0.200000 -0.200000    0.00200000  24 t-inv F
 -0.200000  0.000000  0.200000    0.00200000  24 t-inv F
  0.000000  0.200000 -0.200000    0.00200000  24 t-inv F
 -0.200000  0.000000 -0.200000    0.00200000  24 t-inv F
  0.000000 -0.200000  0.200000    0.00200000  24 t-inv F
  0.200000  0.000000 -0.200000    0.00200000  24 t-inv F
  0.000000  0.200000  0.200000    0.00200000  24 t-inv F
  0.000000 -0.300000 -0.200000    0.00200000  25 t-inv F
 -0.300000  0.000000  0.200000    0.00200000  25 t-inv F
  0.000000  0.300000 -0.200000    0.00200000  25 t-inv F
 -0.300000  0.000000 -0.200000    0.00200000  25 t-inv F
  0.000000 -0.300000  0.200000    0.00200000  25 t-inv F
  0.300000  0.000000 -0.200000    0.00200000  25 t-inv F
  0.000000  0.300000  0.200000    0.00200000  25 t-inv F
  0.000000 -0.400000 -0.200000    0.00200000  26 t-inv F
 -0.400000  0.000000  0.200000    0.00200000  26 t-inv F
  0.000000  0.400000 -0.200000    0.00200000  26 t-inv F
 -0.400000  0.000000 -0.200000    0.00200000  26 t-inv F
  0.000000 -0.400000  0.200000    0.00200000  26 t-inv F
  0.400000  0.000000 -0.200000    0.00200000  26 t-inv F
  0.000000  0.400000  0.200000    0.00200000  26 t-inv F
  0.000000 -0.500000 -0.200000    0.00200000  27 t-inv F
 -0.500000  0.000000 -0.200000    0.00200000  27 t-inv F
  0.000000 -0.500000  0.200000    0.00200000  27 t-inv F
  0.100000 -0.100000 -0.200000    0.00200000  28 t-inv F
 -0.100000 -0.100000  0.200000    0.00200000  28 t-inv F
 -0.100000  0.100000 -0.200000    0.00200000  28 t-inv F
  0.100000 -0.200000 -0.200000    0.00200000  29 t-inv F
 -0.200000 -0.100000  0.200000    0.00200000  29 t-inv F
 -0.100000  0.200000 -0.200000    0.00200000  29 t-inv F
 -0.200000  0.100000 -0.200000    0.00200000  29 t-inv F
 -0.100000 -0.200000  0.200000    0.00200000  29 t-inv F
  0.200000 -0.100000 -0.200000    0.00200000  29 t-inv F
  0.100000  0.200000  0.200000    0.00200000  29 t-inv F
  0.100000 -0.300000 -0.200000    0.00200000  30 t-inv F
 -0.300000 -0.100000  0.200000    0.00200000  30 t-inv F
 -0.100000  0.300000 -0.200000    0.00200000  30 t-inv F
 -0.300000  0.100000 -0.200000    0.00200000  30 t-inv F
 -0.100000 -0.300000  0.200000    0.00200000  30 t-inv F
  0.300000 -0.100000 -0.200000    0.00200000  30 t-inv F
  0.100000  0.300000  0.200000    0.00200000  30 t-inv F
  0.100000 -0.400000 -0.200000    0.00200000  31 t-inv F
 -0.400000 -0.100000  0.200000    0.00200000  31 t-inv F
 -0.100000  0.400000 -0.200000    0.00200000  31 t-inv F
 -0.400000  0.100000 -0.200000    0.00200000  31 t-inv F
 -0.100000 -0.400000  0.200000    0.00200000  31 t-inv F
  0.400000 -0.100000 -0.200000    0.00200000  31 t-inv F
  0.100000  0.400000  0.200000    0.00200000  31 t-inv F
  0.100000 -0.500000 -0.200000    0.00200000  32 t-inv F
 -0.500000 -0.100000  0.200000    0.00200000  32 t-inv F
 -0.100000  0.500000 -0.200000    0.00200000  32 t-inv F
 -0.500000  0.100000 -0.200000    0.00200000  32 t-inv F
 -0.100000 -0.500000  0.200000    0.00200000  32 t-inv F
  0.500000 -0.100000 -0.200000    0.00200000  32 t-inv F
  0.100000  0.500000  0.200000    0.00200000  32 t-inv F
  0.200000 -0.200000 -0.200000    0.00200000  33 t-inv F
 -0.200000 -0.200000  0.200000    0.00200000  33 t-inv F
 -0.200000  0.200000 -0.200000    0.00200000  33 t-inv F
  0.200000 -0.300000 -0.200000    0.00200000  34 t-inv F
 -0.300000 -0.200000  0.200000    0.00200000  34 t-inv F
 -0.200000  0.300000 -0.200000    0.00200000  34 t-inv F
 -0.300000  0.200000 -0.200000    0.00200000  34 t-inv F
 -0.200000 -0.300000  0.200000    0.00200000  34 t-inv F
  0.300000 -0.200000 -0.200000    0.00200000  34 t-inv F
  0.200000  0.300000  0.200000    0.00200000  34 t-inv F
  0.200000 -0.400000 -0.200000    0.00200000  35 t-inv F
 -0.400000 -0.200000  0.200000    0.00200000  35 t-inv F
 -0.200000  0.400000 -0.200000    0.00200000  35 t-inv F
 -0.400000  0.200000 -0.200000    0.00200000  35 t-inv F
 -0.200000 -0.400000  0.200000    0.00200000  35 t-inv F
  0.400000 -0.200000 -0.200000    0.00200000  35 t-inv F
  0.200000  0.400000  0.200000    0.00200000  35 t-inv F
  0.200000 -0.500000 -0.200000    0.00200000  36 t-inv F
 -0.500000 -0.200000  0.200000    0.00200000  36 t-inv F
 -0.200000  0.500000 -0.200000    0.00200000  36 t-inv F
 -0.500000  0.200000 -0.200000    0.00200000  36 t-inv F
 -0.200000 -0.500000  0.200000    0.00200000  36 t-inv F
  0.500000 -0.200000 -0.200000    0.00200000  36 t-inv F
  0.200000  0.500000  0.200000    0.00200000  36 t-inv F
  0.300000 -0.300000 -0.200000    0.00200000  37 t-inv F
 -0.300000 -0.300000  0.200000    0.00200000  37 t-inv F
 -0.300000  0.300000 -0.200000    0.00200000  37 t-inv F
  0.300000 -0.400000 -0.200000    0.00200000  38 t-inv F
 -0.400000 -0.300000  0.200000    0.00200000  38 t-inv F
 -0.300000  0.400000 -0.200000    0.00200000  38 t-inv F
 -0.400000  0.300000 -0.200000    0.00200000  38 t-inv F
 -0.300000 -0.400000  0.200000    0.00200000  38 t-inv F
  0.400000 -0.300000 -0.200000    0.00200000  38 t-inv F
  0.300000  0.400000  0.200000    0.00200000  38 t-inv F
  0.300000 -0.500000 -0.200000    0.00200000  39 t-inv F
 -0.500000 -0.300000  0.200000    0.00200000  39 t-inv F
 -0.300000  0.500000 -0.200000    0.00200000  39 t-inv F
 -0.500000  0.300000 -0.200000    0.00200000  39 t-inv F
 -0.300000 -0.500000  0.200000    0.00200000  39 t-inv F
  0.500000 -0.300000 -0.200000    0.00200000  39 t-inv F
  0.300000  0.500000  0.200000    0.00200000  39 t-inv F
  0.400000 -0.400000 -0.200000    0.00200000  40 t-inv F
 -0.400000 -0.400000  0.200000    0.00200000  40 t-inv F
 -0.400000  0.400000 -0.200000    0.00200000  40 t-inv F
  0.400000 -0.500000 -0.200000    0.00200000  41 t-inv F
 -0.500000 -0.400000  0.200000    0.00200000  41 t-inv F
 -0.400000  0.500000 -0.200000    0.00200000  41 t-inv F
 -0.500000  0.400000 -0.200000    0.00200000  41 t-inv F
 -0.400000 -0.500000  0.200000    0.00200000  41 t-inv F
  0.500000 -0.400000 -0.200000    0.00200000  41 t-inv F
  0.400000  0.500000  0.200000    0.00200000  41 t-inv F
  0.500000 -0.500000 -0.200000    0.00200000  42 t-inv F
  0.000000  0.000000 -0.400000    0.00200000  43 t-inv F
  0.000000 -0.100000 -0.400000    0.00200000  44 t-inv F
 -0.100000  0.000000  0.400000    0.00200000  44 t-inv F
  0.000000  0.100000 -0.400000    0.00200000  44 t-inv F
 -0.100000  0.000000 -0.400000    0.00200000  44 t-inv F
  0.000000 -0.100000  0.400000    0.00200000  44 t-inv F
  0.100000  0.000000 -0.400000    0.00200000  44 t-inv F
  0.000000  0.100000  0.400000    0.00200000  44 t-inv F
  0.000000 -0.200000 -0.400000    0.00200000  45 t-inv F
 -0.200000  0.000000  0.400000    0.00200000  45 t-inv F
  0.000000  0.200000 -0.400000    0.00200000  45 t-inv F
 -0.200000  0.000000 -0.400000    0.00200000  45 t-inv F
  0.000000 -0.200000  0.400000    0.00200000  45 t-inv F
  0.200000  0.000000 -0.400000    0.00200000  45 t-inv F
  0.000000  0.200000  0.400000    0.00200000  45 t-inv F
  0.000000 -0.300000 -0.400000    0.00200000  46 t-inv F
 -0.300000  0.000000  0.400000    0.00200000  46 t-inv F
  0.000000  0.300000 -0.400000    0.00200000  46 t-inv F
 -0.300000  0.000000 -0.400000    0.00200000  46 t-inv F
  0.000000 -0.300000  0.400000    0.00200000  46 t-inv F
  0.300000  0.000000 -0.400000    0.00200000  46 t-inv F
  0.000000  0.300000  0.400000    0.00200000  46 t-inv F
  0.000000 -0.400000 -0.400000    0.00200000  47 t-inv F
 -0.400000  0.000000  0.400000    0.00200000  47 t-inv F
  0.000000  0.400000 -0.400000    0.00200000  47 t-inv F
 -0.400000  0.000000 -0.400000    0.00200000  47 t-inv F
  0.000000 -0.400000  0.400000    0.00200000  47 t-inv F
  0.400000  0.000000 -0.400000    0.00200000  47 t-inv F
  0.000000  0.400000  0.400000    0.00200000  47 t-inv F
  0.000000 -0.500000 -0.400000    0.00200000  48 t-inv F
 -0.500000  0.000000 -0.400000    0.00200000  48 t-inv F
  0.000000 -0.500000  0.400000    0.00200000  48 t-inv F
  0.100000 -0.100000 -0.400000    0.00200000  49 t-inv F
 -0.100000 -0.100000  0.400000    0.00200000  49 t-inv F
 -0.100000  0.100000 -0.400000    0.00200000  49 t-inv F
  0.100000 -0.200000 -0.400000    0.00200000  50 t-inv F
 -0.200000 -0.100000  0.400000    0.00200000  50 t-inv F
 -0.100000  0.200000 -0.400000    0.00200000  50 t-inv F
 -0.200000  0.100000 -0.400000    0.00200000  50 t-inv F
 -0.100000 -0.200000  0.400000    0.00200000  50 t-inv F
  0.200000 -0.100000 -0.400000    0.00200000  50 t-inv F
  0.100000  0.200000  0.400000    0.00200000  50 t-inv F
  0.100000 -0.300000 -0.400000    0.00200000  51 t-inv F
 -0.300000 -0.100000  0.400000    0.00200000  51 t-inv F
 -0.100000  0.300000 -0.400000    0.00200000  51 t-inv F
 -0.300000  0.100000 -0.400000    0.00200000  51 t-inv F
 -0.100000 -0.300000  0.400000    0.00200000  51 t-inv F
  0.300000 -0.100000 -0.400000    0.00200000  51 t-inv F
  0.100000  0.300000  0.400000    0.00200000  51 t-inv F
  0.100000 -0.400000 -0.400000    0.00200000  52 t-inv F
 -0.400000 -0.100000  0.400000    0.00200000  52 t-inv F
 -0.100000  0.400000 -0.400000    0.00200000  52 t-inv F
 -0.400000  0.100000 -0.400000    0.00200000  52 t-inv F
 -0.100000 -0.400000  0.400000    0.00200000  52 t-inv F
  0.400000 -0.100000 -0.400000    0.00200000  52 t-inv F
  0.100000  0.400000  0.400000    0.00200000  52 t-inv F
  0.100000 -0.500000 -0.400000    0.00200000  53 t-inv F
 -0.500000 -0.100000  0.400000    0.00200000  53 t-inv F
 -0.100000  0.500000 -0.400000    0.00200000  53 t-inv F
 -0.500000  0.100000 -0.400000    0.00200000  53 t-inv F
 -0.100000 -0.500000  0.400000    0.00200000  53 t-inv F
  0.500000 -0.100000 -0.400000    0.00200000  53 t-inv F
  0.100000  0.500000  0.400000    0.00200000  53 t-inv F
  0.200000 -0.200000 -0.400000    0.00200000  54 t-inv F
 -0.200000 -0.200000  0.400000    0.00200000  54 t-inv F
 -0.200000  0.200000 -0.400000    0.00200000  54 t-inv F
  0.200000 -0.300000 -0.400000    0.00200000  55 t-inv F
 -0.300000 -0.200000  0.400000    0.00200000  55 t-inv F
 -0.200000  0.300000 -0.400000    0.00200000  55 t-inv F
 -0.300000  0.200000 -0.400000    0.00200000  55 t-inv F
 -0.200000 -0.300000  0.400000    0.00200000  55 t-inv F
  0.300000 -0.200000 -0.400000    0.00200000  55 t-inv F
  0.200000  0.300000  0.400000    0.00200000  55 t-inv F
  0.200000 -0.400000 -0.400000    0.00200000  56 t-inv F
 -0.400000 -0.200000  0.400000    0.00200000  56 t-inv F
 -0.200000  0.400000 -0.400000    0.00200000  56 t-inv F
 -0.400000  0.200000 -0.400000    0.00200000  56 t-inv F
 -0.200000 -0.400000  0.400000    0.00200000  56 t-inv F
  0.400000 -0.200000 -0.400000    0.00200000  56 t-inv F
  0.200000  0.400000  0.400000    0.00200000  56 t-inv F
  0.200000 -0.500000 -0.400000    0.00200000  57 t-inv F
 -0.500000 -0.200000  0.400000    0.00200000  57 t-inv F
 -0.200000  0.500000 -0.400000    0.00200000  57 t-inv F
 -0.500000  0.200000 -0.400000    0.00200000  57 t-inv F
 -0.200000 -0.500000  0.400000    0.00200000  57 t-inv F
  0.500000 -0.200000 -0.400000    0.00200000  57 t-inv F
  0.200000  0.500000  0.400000    0.00200000  57 t-inv F
  0.300000 -0.300000 -0.400000    0.00200000  58 t-inv F
 -0.300000 -0.300000  0.400000    0.00200000  58 t-inv F
 -0.300000  0.300000 -0.400000    0.00200000  58 t-inv F
  0.300000 -0.400000 -0.400000    0.00200000  59 t-inv F
 -0.400000 -0.300000  0.400000    0.00200000  59 t-inv F
 -0.300000  0.400000 -0.400000    0.00200000  59 t-inv F
 -0.400000  0.300000 -0.400000    0.00200000  59 t-inv F
 -0.300000 -0.400000  0.400000    0.00200000  59 t-inv F
  0.400000 -0.300000 -0.400000    0.00200000  59 t-inv F
  0.300000  0.400000  0.400000    0.00200000  59 t-inv F
  0.300000 -0.500000 -0.400000    0.00200000  60 t-inv F
 -0.500000 -0.300000  0.400000    0.00200000  60 t-inv F
 -0.300000  0.500000 -0.400000    0.00200000  60 t-inv F
 -0.500000  0.300000 -0.400000    0.00200000  60 t-inv F
 -0.300000 -0.500000  0.400000    0.00200000  60 t-inv F
  0.500000 -0.300000 -0.400000    0.00200000  60 t-inv F
  0.300000  0.500000  0.400000    0.00200000  60 t-inv F
  0.400000 -0.400000 -0.400000    0.00200000  61 t-inv F
 -0.400000 -0.400000  0.400000    0.00200000  61 t-inv F
 -0.400000  0.400000 -0.400000    0.00200000  61 t-inv F
  0.400000 -0.500000 -0.400000    0.00200000  62 t-inv F
 -0.500000 -0.400000  0.400000    0.00200000  62 t-inv F
 -0.400000  0.500000 -0.400000    0.00200000  62 t-inv F
 -0.500000  0.400000 -0.400000    0.00200000  62 t-inv F
 -0.400000 -0.500000  0.400000    0.00200000  62 t-inv F
  0.500000 -0.400000 -0.400000    0.00200000  62 t-inv F
  0.400000  0.500000  0.400000    0.00200000  62 t-inv F
  0.500000 -0.500000 -0.400000    0.00200000  63 t-inv F
 -0.100000 -0.100000 -0.200000    0.00200000  28 t-inv T
 -0.100000  0.100000  0.200000    0.00200000  28 t-inv T
  0.100000  0.100000 -0.200000    0.00200000  28 t-inv T
  0.100000 -0.100000  0.200000    0.00200000  28 t-inv T
 -0.200000 -0.100000 -0.200000    0.00200000  29 t-inv T
 -0.100000  0.200000  0.200000    0.00200000  29 t-inv T
  0.200000  0.100000 -0.200000    0.00200000  29 t-inv T
  0.100000 -0.200000  0.200000    0.00200000  29 t-inv T
  0.200000 -0.100000  0.200000    0.00200000  29 t-inv T
  0.100000  0.200000 -0.200000    0.00200000  29 t-inv T
 -0.200000  0.100000  0.200000    0.00200000  29 t-inv T
 -0.100000 -0.200000 -0.200000    0.00200000  29 t-inv T
 -0.300000 -0.100000 -0.200000    0.00200000  30 t-inv T
 -0.100000  0.300000  0.200000    0.00200000  30 t-inv T
  0.300000  0.100000 -0.200000    0.00200000  30 t-inv T
  0.100000 -0.300000  0.200000    0.00200000  30 t-inv T
  0.300000 -0.100000  0.200000    0.00200000  30 t-inv T
  0.100000  0.300000 -0.200000    0.00200000  30 t-inv T
 -0.300000  0.100000  0.200000    0.00200000  30 t-inv T
 -0.100000 -0.300000 -0.200000    0.00200000  30 t-inv T
 -0.400000 -0.100000 -0.200000    0.00200000  31 t-inv T
 -0.100000  0.400000  0.200000    0.00200000  31 t-inv T
  0.400000  0.100000 -0.200000    0.00200000  31 t-inv T
  0.100000 -0.400000  0.200000    0.00200000  31 t-inv T
  0.400000 -0.100000  0.200000    0.00200000  31 t-inv T
  0.100000  0.400000 -0.200000    0.00200000  31 t-inv T
 -0.400000  0.100000  0.200000    0.00200000  31 t-inv T
 -0.100000 -0.400000 -0.200000    0.00200000  31 t-inv T
 -0.200000 -0.200000 -0.200000    0.00200000  33 t-inv T
 -0.200000  0.200000  0.200000    0.00200000  33 t-inv T
  0.200000  0.200000 -0.200000    0.00200000  33 t-inv T
  0.200000 -0.200000  0.200000    0.00200000  33 t-inv T
 -0.300000 -0.200000 -0.200000    0.00200000  34 t-inv T
 -0.200000  0.300000  0.200000    0.00200000  34 t-inv T
  0.300000  0.200000 -0.200000    0.00200000  34 t-inv T
  0.200000 -0.300000  0.200000    0.00200000  34 t-inv T
  0.300000 -0.200000  0.200000    0.00200000  34 t-inv T
  0.200000  0.300000 -0.200000    0.00200000  34 t-inv T
 -0.300000  0.200000  0.200000    0.00200000  34 t-inv T
 -0.200000 -0.300000 -0.200000    0.00200000  34 t-inv T
 -0.400000 -0.200000 -0.200000    0.00200000  35 t-inv T
 -0.200000  0.400000  0.200000    0.00200000  35 t-inv T
  0.400000  0.200000 -0.200000    0.00200000  35 t-inv T
  0.200000 -0.400000  0.200000    0.00200000  35 t-inv T
  0.400000 -0.200000  0.200000    0.00200000  35 t-inv T
  0.200000  0.400000 -0.200000    0.00200000  35 t-inv T
 -0.400000  0.200000  0.200000    0.00200000  35 t-inv T
 -0.200000 -0.400000 -0.200000    0.00200000  35 t-inv T
 -0.300000 -0.300000 -0.200000    0.00200000  37 t-inv T
 -0.300000  0.300000  0.200000    0.00200000  37 t-inv T
  0.300000  0.300000 -0.200000    0.00200000  37 t-inv T
  0.300000 -0.300000  0.200000    0.00200000  37 t-inv T
 -0.400000 -0.300000 -0.200000    0.00200000  38 t-inv T
 -0.300000  0.400000  0.200000    0.00200000  38 t-inv T
  0.400000  0.300000 -0.200000    0.00200000  38 t-inv T
  0.300000 -0.400000  0.200000    0.00200000  38 t-inv T
  0.400000 -0.300000  0.200000    0.00200000  38 t-inv T
  0.300000  0.400000 -0.200000    0.00200000  38 t-inv T
 -0.400000  0.300000  0.200000    0.00200000  38 t-inv T
 -0.300000 -0.400000 -0.200000    0.00200000  38 t-inv T
 -0.400000 -0.400000 -0.200000    0.00200000  40 t-inv T
 -0.400000  0.400000  0.200000    0.00200000  40 t-inv T
  0.400000  0.400000 -0.200000    0.00200000  40 t-inv T
  0.400000 -0.400000  0.200000    0.00200000  40 t-inv T
 -0.100000 -0.100000 -0.400000    0.00200000  49 t-inv T
 -0.100000  0.100000  0.400000    0.00200000  49 t-inv T
  0.100000  0.100000 -0.400000    0.00200000  49 t-inv T
  0.100000 -0.100000  0.400000    0.00200000  49 t-inv T
 -0.200000 -0.100000 -0.400000    0.00200000  50 t-inv T
 -0.100000  0.200000  0.400000    0.00200000  50 t-inv T
  0.200000  0.100000 -0.400000    0.00200000  50 t-inv T
  0.100000 -0.200000  0.400000    0.00200000  50 t-inv T
  0.200000 -0.100000  0.400000    0.00200000  50 t-inv T
  0.100000  0.200000 -0.400000    0.00200000  50 t-inv T
 -0.200000  0.100000  0.400000    0.00200000  50 t-inv T
 -0.100000 -0.200000 -0.400000    0.00200000  50 t-inv T
 -0.300000 -0.100000 -0.400000    0.00200000  51 t-inv T
 -0.100000  0.300000  0.400000    0.00200000  51 t-inv T
  0.300000  0.100000 -0.400000    0.00200000  51 t-inv T
  0.100000 -0.300000  0.400000    0.00200000  51 t-inv T
  0.300000 -0.100000  0.400000    0.00200000  51 t-inv T
  0.100000  0.300000 -0.400000    0.00200000  51 t-inv T
 -0.300000  0.100000  0.400000    0.00200000  51 t-inv T
 -0.100000 -0.300000 -0.400000    0.00200000  51 t-inv T
 -0.400000 -0.100000 -0.400000    0.00200000  52 t-inv T
 -0.100000  0.400000  0.400000    0.00200000  52 t-inv T
  0.400000  0.100000 -0.400000    0.00200000  52 t-inv T
  0.100000 -0.400000  0.400000    0.00200000  52 t-inv T
  0.400000 -0.100000  0.400000    0.00200000  52 t-inv T
  0.100000  0.400000 -0.400000    0.00200000  52 t-inv T
 -0.400000  0.100000  0.400000    0.00200000  52 t-inv T
 -0.100000 -0.400000 -0.400000    0.00200000  52 t-inv T
 -0.200000 -0.200000 -0.400000    0.00200000  54 t-inv T
 -0.200000  0.200000  0.400000    0.00200000  54 t-inv T
  0.200000  0.200000 -0.400000    0.00200000  54 t-inv T
  0.200000 -0.200000  0.400000    0.00200000  54 t-inv T
 -0.300000 -0.200000 -0.400000    0.00200000  55 t-inv T
 -0.200000  0.300000  0.400000    0.00200000  55 t-inv T
  0.300000  0.200000 -0.400000    0.00200000  55 t-inv T
  0.200000 -0.300000  0.400000    0.00200000  55 t-inv T
  0.300000 -0.200000  0.400000    0.00200000  55 t-inv T
  0.200000  0.300000 -0.400000    0.00200000  55 t-inv T
 -0.300000  0.200000  0.400000    0.00200000  55 t-inv T
 -0.200000 -0.300000 -0.400000    0.00200000  55 t-inv T
 -0.400000 -0.200000 -0.400000    0.00200000  56 t-inv T
 -0.200000  0.400000  0.400000    0.00200000  56 t-inv T
  0.400000  0.200000 -0.400000    0.00200000  56 t-inv T
  0.200000 -0.400000  0.400000    0.00200000  56 t-inv T
  0.400000 -0.200000  0.400000    0.00200000  56 t-inv T
  0.200000  0.400000 -0.400000    0.00200000  56 t-inv T
 -0.400000  0.200000  0.400000    0.00200000  56 t-inv T
 -0.200000 -0.400000 -0.400000    0.00200000  56 t-inv T
 -0.300000 -0.300000 -0.400000    0.00200000  58 t-inv T
 -0.300000  0.300000  0.400000    0.00200000  58 t-inv T
  0.300000  0.300000 -0.400000    0.00200000  58 t-inv T
  0.300000 -0.300000  0.400000    0.00200000  58 t-inv T
 -0.400000 -0.300000 -0.400000    0.00200000  59 t-inv T
 -0.300000  0.400000  0.400000    0.00200000  59 t-inv T
  0.400000  0.300000 -0.400000    0.00200000  59 t-inv T
  0.300000 -0.400000  0.400000    0.00200000  59 t-inv T
  0.400000 -0.300000  0.400000    0.00200000  59 t-inv T
  0.300000  0.400000 -0.400000    0.00200000  59 t-inv T
 -0.400000  0.300000  0.400000    0.00200000  59 t-inv T
 -0.300000 -0.400000 -0.400000    0.00200000  59 t-inv T
 -0.400000 -0.400000 -0.400000    0.00200000  61 t-inv T
 -0.400000  0.400000  0.400000    0.00200000  61 t-inv T
  0.400000  0.400000 -0.400000    0.00200000  61 t-inv T
  0.400000 -0.400000  0.400000    0.00200000  61 t-inv T
 -----------------------------------------------------------------------------
|                                                                             |
|           W    W    AA    RRRRR   N    N  II  N    N   GGGG   !!!           |
|           W    W   A  A   R    R  NN   N  II  NN   N  G    G  !!!           |
|           W    W  A    A  R    R  N N  N  II  N N  N  G       !!!           |
|           W WW W  AAAAAA  RRRRR   N  N N  II  N  N N  G  GGG   !            |
|           WW  WW  A    A  R   R   N   NN  II  N   NN  G    G                |
|           W    W  A    A  R    R  N    N  II  N    N   GGGG   !!!           |
|                                                                             |
|     The number of bands has been changed from the values supplied in        |
|     the INCAR file. This is a result of running the parallel version.       |
|     The orbitals not found in the WAVECAR file will be initialized with     |
|     random numbers, which is usually adequate. For correlated               |
|     calculations, however, you should redo the groundstate calculation.     |
|     I found NBANDS = 640. Now, NBANDS = 648.                                |
|                                                                             |
 -----------------------------------------------------------------------------



--------------------------------------------------------------------------------------------------------




 Dimension of arrays:
   k-points           NKPTS =     63   k-points in BZ     NKDIM =    500   number of bands    NBANDS=    648
   number of dos      NEDOS =    301   number of ions     NIONS =     16
   non local maximal  LDIM  =      6   non local SUM 2l+1 LMDIM =     18
   total plane-waves  NPLWV =  90720
   max r-space proj   IRMAX =      1   max aug-charges    IRDMAX=  81658
   dimension x,y,z NGX =    36 NGY =   36 NGZ =   70
   dimension x,y,z NGXF=    72 NGYF=   72 NGZF=  140
   support grid    NGXF=   144 NGYF=  144 NGZF=  280
   ions per type =               4   4   8
   NGX,Y,Z   is equivalent  to a cutoff of  10.35, 10.35, 10.02 a.u.
   NGXF,Y,Z  is equivalent  to a cutoff of  20.70, 20.70, 20.03 a.u.

 SYSTEM =  CuInSe                                  
 POSCAR =  Cu1-In1-Se2 'I -4 2 d'  #122            

 Startparameter for this run:
   NWRITE =      2    write-flag & timer
   PREC   = accura    normal or accurate (medium, high low for compatibility)
   ISTART =      1    job   : 0-new  1-cont  2-samecut
   ICHARG =      0    charge: 1-file 2-atom 10-const
   ISPIN  =      1    spin polarized calculation?
   LNONCOLLINEAR =      F non collinear calculations
   LSORBIT =      F    spin-orbit coupling
   INIWAV =      1    electr: 0-lowe 1-rand  2-diag
   LASPH  =      F    aspherical Exc in radial PAW
   METAGGA=      F    non-selfconsistent MetaGGA calc.

 Electronic Relaxation 1
   ENCUT  =  300.0 eV  22.05 Ry    4.70 a.u.   8.17  8.17 16.41*2*pi/ulx,y,z
   ENINI  =  300.0     initial cutoff
   ENAUG  =  516.5 eV  augmentation charge cutoff
   NELM   =     60;   NELMIN=  3; NELMDL=  0     # of ELM steps 
   EDIFF  = 0.1E-04   stopping-criterion for ELM
   LREAL  =      F    real-space projection
   NLSPLINE    = F    spline interpolate recip. space projectors
   LCOMPAT=      F    compatible to vasp.4.4
   GGA_COMPAT  = T    GGA compatible to vasp.4.4-vasp.4.6
   LMAXPAW     = -100 max onsite density
   LMAXMIX     =    4 max onsite mixed and CHGCAR
   VOSKOWN=      0    Vosko Wilk Nusair interpolation
   ROPT   =    0.00000   0.00000   0.00000
 Ionic relaxation
   EDIFFG = 0.1E-03   stopping-criterion for IOM
   NSW    =      0    number of steps for IOM
   NBLOCK =      1;   KBLOCK =      1    inner block; outer block 
   IBRION =     -1    ionic relax: 0-MD 1-quasi-New 2-CG
   NFREE  =      0    steps in history (QN), initial steepest desc. (CG)
   ISIF   =      0    stress and relaxation
   IWAVPR =     10    prediction:  0-non 1-charg 2-wave 3-comb
   ISYM   =      3    0-nonsym 1-usesym 2-fastsym
   LCORR  =      T    Harris-Foulkes like correction to forces

   POTIM  = 0.5000    time-step for ionic-motion
   TEIN   =    0.0    initial temperature
   TEBEG  =    0.0;   TEEND  =   0.0 temperature during run
   SMASS  =  -3.00    Nose mass-parameter (am)
   estimated Nose-frequenzy (Omega)   =  0.10E-29 period in steps = 0.13E+47 mass=  -0.764E-27a.u.
   SCALEE = 1.0000    scale energy and forces
   NPACO  =    256;   APACO  = 16.0  distance and # of slots for P.C.
   PSTRESS=    0.0 pullay stress

  Mass of Ions in am
   POMASS =  63.55114.82 78.96
  Ionic Valenz
   ZVAL   =  11.00 13.00  6.00
  Atomic Wigner-Seitz radii
   RWIGS  =  -1.00 -1.00 -1.00
  virtual crystal weights 
   VCA    =   1.00  1.00  1.00
   NELECT =     144.0000    total number of electrons
   NUPDOWN=      -1.0000    fix difference up-down

 DOS related values:
   EMIN   =  10.00;   EMAX   =-10.00  energy-range for DOS
   EFERMI =   0.00
   ISMEAR =     0;   SIGMA  =   0.01  broadening in eV -4-tet -1-fermi 0-gaus

 Electronic relaxation 2 (details)
   IALGO  =     53    algorithm
   LDIAG  =      T    sub-space diagonalisation (order eigenvalues)
   LSUBROT=      F    optimize rotation matrix (better conditioning)
   TURBO    =      0    0=normal 1=particle mesh
   IRESTART =      0    0=no restart 2=restart with 2 vectors
   NREBOOT  =      0    no. of reboots
   NMIN     =      0    reboot dimension
   EREF     =   0.00    reference energy to select bands
   IMIX   =      4    mixing-type and parameters
     AMIX     =   0.40;   BMIX     =  1.00
     AMIX_MAG =   1.60;   BMIX_MAG =  1.00
     AMIN     =   0.10
     WC   =   100.;   INIMIX=   1;  MIXPRE=   1;  MAXMIX= -45

 Intra band minimization:
   WEIMIN = 0.0000     energy-eigenvalue tresh-hold
   EBREAK =  0.39E-08  absolut break condition
   DEPER  =   0.30     relativ break condition  

   TIME   =   0.40     timestep for ELM

  volume/ion in A,a.u.               =      24.28       163.86
  Fermi-wavevector in a.u.,A,eV,Ry     =   1.175975  2.222271 18.815737  1.382918
  Thomas-Fermi vector in A             =   2.312347
 
 Write flags
   LWAVE        =      T    write WAVECAR
   LDOWNSAMPLE  =      F    k-point downsampling of WAVECAR
   LCHARG       =      T    write CHGCAR
   LVTOT        =      F    write LOCPOT, total local potential
   LVHAR        =      F    write LOCPOT, Hartree potential only
   LELF         =      F    write electronic localiz. function (ELF)
   LORBIT       =     11    0 simple, 1 ext, 2 COOP (PROOUT), +10 PAW based schemes


 Dipole corrections
   LMONO  =      F    monopole corrections only (constant potential shift)
   LDIPOL =      F    correct potential (dipole corrections)
   IDIPOL =      0    1-x, 2-y, 3-z, 4-all directions 
   EPSILON=  1.0000000 bulk dielectric constant

 Exchange correlation treatment:
   GGA     =    --    GGA type
   LEXCH   =     8    internal setting for exchange type
   VOSKOWN=      0    Vosko Wilk Nusair interpolation
   EXXOEP  =     0    0=HF, 1=EXX-LHF (local Hartree Fock) 2=EXX OEP
   LHFCALC =     T    Hartree Fock is set to
   LSYMGRAD=     F    symmetrize gradient (conserves proper symmetry)
   PRECFOCK=normal    Normal, Fast or Accurate (Low or Medium for compatibility)
   LRHFCALC=     F    long range Hartree Fock
   LRSCOR  =     F    long range correlation only (use DFT for short range part)
   LTHOMAS =     F    Thomas Fermi screening in HF
   LMODELHF=     F    short range full HF, long range fraction AEXX
   LFOCKACE=     T    use Adeptively-Compressed-Exchange operator
   ENCUT4O =  -1.0   cutoff for four orbital integrals eV
   LMAXFOCK=     4    L truncation for augmentation on plane wave grid
   LMAXFOCKAE=  -1    L truncation for all-electron charge restoration on plane wave grid
   NMAXFOCKAE=   1    number of basis functions for all-electron charge restoration
   LFOCKAEDFT=     F  apply the AE augmentation even for DFT
   NKREDX  =     5    reduce k-point grid by
   NKREDY  =     5    reduce k-point grid by
   NKREDZ  =     5    reduce k-point grid by
   SHIFTRED=     F    shift reduced grid of Gamma
   HFKIDENT=     F    idential grid for each k-point
   ODDONLY =     F    use only odd q-grid points
   EVENONLY=     F    use only even q-grid points
   HFALPHA =   -1.0000 decay constant for conv. correction
   MCALPHA =    0.0000 extent of test-charge in conv. correction in multipole expansion
   AEXX    =    0.2500 exact exchange contribution
   HFSCREEN=    0.2000 screening length (either q_TF or 0.3 A-1)
   HFSCREENC=   0.2000 screening length for correlation (either q_TF or 0.3 A-1)
   HFRCUT  =    0.0000 spherical cutoff for potential kernel
   ALDAX   =    0.7500 LDA exchange part
   AGGAX   =    0.7500 GGA exchange part
   ALDAC   =    1.0000 LDA correlation
   AGGAC   =    1.0000 GGA correlation
   ENCUTFOCK=  -1.0 apply spherical cutoff to Coloumb kernel
   NBANDSGWLOW=     1    first orbital included in HF term
   NBLOCK_FOCK=    64    blocking factor in FOCK_ACC
 Linear response parameters
   LEPSILON=     F    determine dielectric tensor
   LRPA    =     F    only Hartree local field effects (RPA)
   LNABLA  =     F    use nabla operator in PAW spheres
   LVEL    =     F    velocity operator in full k-point grid
   LINTERFAST=   F  fast interpolation
   KINTER  =     0    interpolate to denser k-point grid
   CSHIFT  =0.1000    complex shift for real part using Kramers Kronig
   OMEGAMAX=  -1.0    maximum frequency
   DEG_THRESHOLD= 0.2000000E-02 threshold for treating states as degnerate
   RTIME   =   -0.100 relaxation time in fs
  (WPLASMAI=    0.000 imaginary part of plasma frequency in eV, 0.658/RTIME)
   DFIELD  = 0.0000000 0.0000000 0.0000000 field for delta impulse in time
 
 Orbital magnetization related:
   ORBITALMAG=     F  switch on orbital magnetization
   LCHIMAG   =     F  perturbation theory with respect to B field
   DQ        =  0.001000  dq finite difference perturbation B field
   LLRAUG    =     F  two centre corrections for induced B field



--------------------------------------------------------------------------------------------------------


 Static calculation
 charge density and potential will be updated during run
 non-spin polarized calculation
 Conjugate gradient for all bands (Freysoldt, et al. PRB 79, 241103 (2009))
 perform sub-space diagonalisation
    before iterative eigenvector-optimisation
 modified Broyden-mixing scheme, WC =      100.0
 initial mixing is a Kerker type mixing with AMIX =  0.4000 and BMIX =      1.0000
 Hartree-type preconditioning will be used
 using additional bands          576
 reciprocal scheme for non local part
 use partial core corrections
 no Harris-corrections to forces 
 use gradient corrections 
 use of overlap-Matrix (Vanderbilt PP)
 Gauss-broadening in eV      SIGMA  =   0.01


--------------------------------------------------------------------------------------------------------


  energy-cutoff  :      300.00
  volume of cell :      388.50
      direct lattice vectors                 reciprocal lattice vectors
     5.782400000  0.000000000  0.000000000     0.172938572  0.000000000  0.000000000
     0.000000000  5.782400000  0.000000000     0.000000000  0.172938572  0.000000000
     0.000000000  0.000000000 11.619200000     0.000000000  0.000000000  0.086064445

  length of vectors
     5.782400000  5.782400000 11.619200000     0.172938572  0.172938572  0.086064445


 
 old parameters found on file WAVECAR:
  energy-cutoff  :      300.00
  volume of cell :      388.50
      direct lattice vectors                 reciprocal lattice vectors
     5.782400000  0.000000000  0.000000000     0.172938572  0.000000000  0.000000000
     0.000000000  5.782400000  0.000000000     0.000000000  0.172938572  0.000000000
     0.000000000  0.000000000 11.619200000     0.000000000  0.000000000  0.086064445

  length of vectors

 
 k-points in units of 2pi/SCALE and weight: KPOINTS                                 
   0.00000000  0.00000000  0.00000000       0.002
   0.01729386  0.00000000  0.00000000       0.008
   0.03458771  0.00000000  0.00000000       0.008
   0.05188157  0.00000000  0.00000000       0.008
   0.06917543  0.00000000  0.00000000       0.008
   0.08646929  0.00000000  0.00000000       0.004
   0.01729386  0.01729386  0.00000000       0.008
   0.03458771  0.01729386  0.00000000       0.016
   0.05188157  0.01729386  0.00000000       0.016
   0.06917543  0.01729386  0.00000000       0.016
   0.08646929  0.01729386  0.00000000       0.008
   0.03458771  0.03458771  0.00000000       0.008
   0.05188157  0.03458771  0.00000000       0.016
   0.06917543  0.03458771  0.00000000       0.016
   0.08646929  0.03458771  0.00000000       0.008
   0.05188157  0.05188157  0.00000000       0.008
   0.06917543  0.05188157  0.00000000       0.016
   0.08646929  0.05188157  0.00000000       0.008
   0.06917543  0.06917543  0.00000000       0.008
   0.08646929  0.06917543  0.00000000       0.008
   0.08646929  0.08646929  0.00000000       0.002
   0.00000000  0.00000000  0.01721289       0.004
   0.01729386  0.00000000  0.01721289       0.016
   0.03458771  0.00000000  0.01721289       0.016
   0.05188157  0.00000000  0.01721289       0.016
   0.06917543  0.00000000  0.01721289       0.016
   0.08646929  0.00000000  0.01721289       0.008
   0.01729386  0.01729386  0.01721289       0.016
   0.03458771  0.01729386  0.01721289       0.032
   0.05188157  0.01729386  0.01721289       0.032
   0.06917543  0.01729386  0.01721289       0.032
   0.08646929  0.01729386  0.01721289       0.016
   0.03458771  0.03458771  0.01721289       0.016
   0.05188157  0.03458771  0.01721289       0.032
   0.06917543  0.03458771  0.01721289       0.032
   0.08646929  0.03458771  0.01721289       0.016
   0.05188157  0.05188157  0.01721289       0.016
   0.06917543  0.05188157  0.01721289       0.032
   0.08646929  0.05188157  0.01721289       0.016
   0.06917543  0.06917543  0.01721289       0.016
   0.08646929  0.06917543  0.01721289       0.016
   0.08646929  0.08646929  0.01721289       0.004
   0.00000000  0.00000000  0.03442578       0.004
   0.01729386  0.00000000  0.03442578       0.016
   0.03458771  0.00000000  0.03442578       0.016
   0.05188157  0.00000000  0.03442578       0.016
   0.06917543  0.00000000  0.03442578       0.016
   0.08646929  0.00000000  0.03442578       0.008
   0.01729386  0.01729386  0.03442578       0.016
   0.03458771  0.01729386  0.03442578       0.032
   0.05188157  0.01729386  0.03442578       0.032
   0.06917543  0.01729386  0.03442578       0.032
   0.08646929  0.01729386  0.03442578       0.016
   0.03458771  0.03458771  0.03442578       0.016
   0.05188157  0.03458771  0.03442578       0.032
   0.06917543  0.03458771  0.03442578       0.032
   0.08646929  0.03458771  0.03442578       0.016
   0.05188157  0.05188157  0.03442578       0.016
   0.06917543  0.05188157  0.03442578       0.032
   0.08646929  0.05188157  0.03442578       0.016
   0.06917543  0.06917543  0.03442578       0.016
   0.08646929  0.06917543  0.03442578       0.016
   0.08646929  0.08646929  0.03442578       0.004
 
 k-points in reciprocal lattice and weights: KPOINTS                                 
   0.00000000  0.00000000  0.00000000       0.002
   0.10000000  0.00000000  0.00000000       0.008
   0.20000000  0.00000000  0.00000000       0.008
   0.30000000  0.00000000  0.00000000       0.008
   0.40000000  0.00000000  0.00000000       0.008
   0.50000000  0.00000000  0.00000000       0.004
   0.10000000  0.10000000  0.00000000       0.008
   0.20000000  0.10000000  0.00000000       0.016
   0.30000000  0.10000000  0.00000000       0.016
   0.40000000  0.10000000  0.00000000       0.016
   0.50000000  0.10000000  0.00000000       0.008
   0.20000000  0.20000000  0.00000000       0.008
   0.30000000  0.20000000  0.00000000       0.016
   0.40000000  0.20000000  0.00000000       0.016
   0.50000000  0.20000000  0.00000000       0.008
   0.30000000  0.30000000  0.00000000       0.008
   0.40000000  0.30000000  0.00000000       0.016
   0.50000000  0.30000000  0.00000000       0.008
   0.40000000  0.40000000  0.00000000       0.008
   0.50000000  0.40000000  0.00000000       0.008
   0.50000000  0.50000000  0.00000000       0.002
   0.00000000  0.00000000  0.20000000       0.004
   0.10000000  0.00000000  0.20000000       0.016
   0.20000000  0.00000000  0.20000000       0.016
   0.30000000  0.00000000  0.20000000       0.016
   0.40000000  0.00000000  0.20000000       0.016
   0.50000000  0.00000000  0.20000000       0.008
   0.10000000  0.10000000  0.20000000       0.016
   0.20000000  0.10000000  0.20000000       0.032
   0.30000000  0.10000000  0.20000000       0.032
   0.40000000  0.10000000  0.20000000       0.032
   0.50000000  0.10000000  0.20000000       0.016
   0.20000000  0.20000000  0.20000000       0.016
   0.30000000  0.20000000  0.20000000       0.032
   0.40000000  0.20000000  0.20000000       0.032
   0.50000000  0.20000000  0.20000000       0.016
   0.30000000  0.30000000  0.20000000       0.016
   0.40000000  0.30000000  0.20000000       0.032
   0.50000000  0.30000000  0.20000000       0.016
   0.40000000  0.40000000  0.20000000       0.016
   0.50000000  0.40000000  0.20000000       0.016
   0.50000000  0.50000000  0.20000000       0.004
   0.00000000  0.00000000  0.40000000       0.004
   0.10000000  0.00000000  0.40000000       0.016
   0.20000000  0.00000000  0.40000000       0.016
   0.30000000  0.00000000  0.40000000       0.016
   0.40000000  0.00000000  0.40000000       0.016
   0.50000000  0.00000000  0.40000000       0.008
   0.10000000  0.10000000  0.40000000       0.016
   0.20000000  0.10000000  0.40000000       0.032
   0.30000000  0.10000000  0.40000000       0.032
   0.40000000  0.10000000  0.40000000       0.032
   0.50000000  0.10000000  0.40000000       0.016
   0.20000000  0.20000000  0.40000000       0.016
   0.30000000  0.20000000  0.40000000       0.032
   0.40000000  0.20000000  0.40000000       0.032
   0.50000000  0.20000000  0.40000000       0.016
   0.30000000  0.30000000  0.40000000       0.016
   0.40000000  0.30000000  0.40000000       0.032
   0.50000000  0.30000000  0.40000000       0.016
   0.40000000  0.40000000  0.40000000       0.016
   0.50000000  0.40000000  0.40000000       0.016
   0.50000000  0.50000000  0.40000000       0.004
 
 position of ions in fractional coordinates (direct lattice) 
   0.00000000  0.50000000  0.25000000
   0.00000000  0.00000000  0.00000000
   0.50000000  0.00000000  0.75000000
   0.50000000  0.50000000  0.50000000
   0.00000000  0.50000000  0.75000000
   0.00000000  0.00000000  0.50000000
   0.50000000  0.00000000  0.25000000
   0.50000000  0.50000000  0.00000000
   0.75000000  0.26500000  0.37500000
   0.25000000  0.76500000  0.87500000
   0.25000000  0.73500000  0.37500000
   0.75000000  0.23500000  0.87500000
   0.23500000  0.25000000  0.12500000
   0.76500000  0.75000000  0.12500000
   0.73500000  0.75000000  0.62500000
   0.26500000  0.25000000  0.62500000
 
 position of ions in cartesian coordinates  (Angst):
   0.00000000  2.89120000  2.90480000
   0.00000000  0.00000000  0.00000000
   2.89120000  0.00000000  8.71440000
   2.89120000  2.89120000  5.80960000
   0.00000000  2.89120000  8.71440000
   0.00000000  0.00000000  5.80960000
   2.89120000  0.00000000  2.90480000
   2.89120000  2.89120000  0.00000000
   4.33680000  1.53233600  4.35720000
   1.44560000  4.42353600 10.16680000
   1.44560000  4.25006400  4.35720000
   4.33680000  1.35886400 10.16680000
   1.35886400  1.44560000  1.45240000
   4.42353600  4.33680000  1.45240000
   4.25006400  4.33680000  7.26200000
   1.53233600  1.44560000  7.26200000
 


--------------------------------------------------------------------------------------------------------


 k-point   1 :   0.0000 0.0000 0.0000  plane waves:    4581
 k-point   2 :   0.1000 0.0000 0.0000  plane waves:    4599
 k-point   3 :   0.2000 0.0000 0.0000  plane waves:    4576
 k-point   4 :   0.3000 0.0000 0.0000  plane waves:    4594
 k-point   5 :   0.4000 0.0000 0.0000  plane waves:    4578
 k-point   6 :   0.5000 0.0000 0.0000  plane waves:    4576
 k-point   7 :   0.1000 0.1000 0.0000  plane waves:    4589
 k-point   8 :   0.2000 0.1000 0.0000  plane waves:    4571
 k-point   9 :   0.3000 0.1000 0.0000  plane waves:    4581
 k-point  10 :   0.4000 0.1000 0.0000  plane waves:    4589
 k-point  11 :   0.5000 0.1000 0.0000  plane waves:    4594
 k-point  12 :   0.2000 0.2000 0.0000  plane waves:    4593
 k-point  13 :   0.3000 0.2000 0.0000  plane waves:    4584
 k-point  14 :   0.4000 0.2000 0.0000  plane waves:    4585
 k-point  15 :   0.5000 0.2000 0.0000  plane waves:    4594
 k-point  16 :   0.3000 0.3000 0.0000  plane waves:    4578
 k-point  17 :   0.4000 0.3000 0.0000  plane waves:    4599
 k-point  18 :   0.5000 0.3000 0.0000  plane waves:    4594
 k-point  19 :   0.4000 0.4000 0.0000  plane waves:    4584
 k-point  20 :   0.5000 0.4000 0.0000  plane waves:    4584
 k-point  21 :   0.5000 0.5000 0.0000  plane waves:    4608
 k-point  22 :   0.0000 0.0000 0.2000  plane waves:    4589
 k-point  23 :   0.1000 0.0000 0.2000  plane waves:    4587
 k-point  24 :   0.2000 0.0000 0.2000  plane waves:    4588
 k-point  25 :   0.3000 0.0000 0.2000  plane waves:    4589
 k-point  26 :   0.4000 0.0000 0.2000  plane waves:    4578
 k-point  27 :   0.5000 0.0000 0.2000  plane waves:    4580
 k-point  28 :   0.1000 0.1000 0.2000  plane waves:    4573
 k-point  29 :   0.2000 0.1000 0.2000  plane waves:    4583
 k-point  30 :   0.3000 0.1000 0.2000  plane waves:    4587
 k-point  31 :   0.4000 0.1000 0.2000  plane waves:    4575
 k-point  32 :   0.5000 0.1000 0.2000  plane waves:    4582
 k-point  33 :   0.2000 0.2000 0.2000  plane waves:    4589
 k-point  34 :   0.3000 0.2000 0.2000  plane waves:    4580
 k-point  35 :   0.4000 0.2000 0.2000  plane waves:    4579
 k-point  36 :   0.5000 0.2000 0.2000  plane waves:    4582
 k-point  37 :   0.3000 0.3000 0.2000  plane waves:    4587
 k-point  38 :   0.4000 0.3000 0.2000  plane waves:    4597
 k-point  39 :   0.5000 0.3000 0.2000  plane waves:    4598
 k-point  40 :   0.4000 0.4000 0.2000  plane waves:    4598
 k-point  41 :   0.5000 0.4000 0.2000  plane waves:    4604
 k-point  42 :   0.5000 0.5000 0.2000  plane waves:    4580
 k-point  43 :   0.0000 0.0000 0.4000  plane waves:    4589
 k-point  44 :   0.1000 0.0000 0.4000  plane waves:    4576
 k-point  45 :   0.2000 0.0000 0.4000  plane waves:    4588
 k-point  46 :   0.3000 0.0000 0.4000  plane waves:    4573
 k-point  47 :   0.4000 0.0000 0.4000  plane waves:    4576
 k-point  48 :   0.5000 0.0000 0.4000  plane waves:    4578
 k-point  49 :   0.1000 0.1000 0.4000  plane waves:    4585
 k-point  50 :   0.2000 0.1000 0.4000  plane waves:    4586
 k-point  51 :   0.3000 0.1000 0.4000  plane waves:    4574
 k-point  52 :   0.4000 0.1000 0.4000  plane waves:    4573
 k-point  53 :   0.5000 0.1000 0.4000  plane waves:    4570
 k-point  54 :   0.2000 0.2000 0.4000  plane waves:    4569
 k-point  55 :   0.3000 0.2000 0.4000  plane waves:    4575
 k-point  56 :   0.4000 0.2000 0.4000  plane waves:    4584
 k-point  57 :   0.5000 0.2000 0.4000  plane waves:    4576
 k-point  58 :   0.3000 0.3000 0.4000  plane waves:    4579
 k-point  59 :   0.4000 0.3000 0.4000  plane waves:    4596
 k-point  60 :   0.5000 0.3000 0.4000  plane waves:    4596
 k-point  61 :   0.4000 0.4000 0.4000  plane waves:    4602
 k-point  62 :   0.5000 0.4000 0.4000  plane waves:    4610
 k-point  63 :   0.5000 0.5000 0.4000  plane waves:    4608

 maximum and minimum number of plane-waves per node :      4610     4569

 maximum number of plane-waves:      4610
 maximum index in each direction: 
   IXMAX=    8   IYMAX=    8   IZMAX=   16
   IXMIN=   -8   IYMIN=   -8   IZMIN=  -16


 serial   3D FFT for wavefunctions
 parallel 3D FFT for charge:
    minimum data exchange during FFTs selected (reduces bandwidth)


 FFT grid for exact exchange (Hartree Fock) 
  NGX = 28; NGY = 28; NGZ = 50

 
 Radii for the augmentation spheres in the non-local exchange
 for species   1 augmentation radius   1.218 (default was   1.005)
       energy cutoff for augmentation   1200.0
 for species   2 augmentation radius   1.347 (default was   1.077)
       energy cutoff for augmentation   1200.0
 for species   3 augmentation radius   1.152 (default was   1.081)
       energy cutoff for augmentation   1200.0
[...]
  103.356217    0.949771    0.949771    0.949788    0.000000    0.000000    0.000000

  frequency dependent IMAGINARY DIELECTRIC FUNCTION (independent particle, no local field effects) current-current
     E(ev)      X         Y         Z        XY        YZ        ZX
  --------------------------------------------------------------------------------------------------------------
    0.000000    0.000000    0.000000    0.000000    0.000000    0.000000    0.000000
    1.044002    0.000001    0.000001    0.063232    0.000000    0.000000    0.000000
    2.088004    0.000000    0.000000    0.000000    0.000000    0.000000    0.000000
    3.132007    3.998857    3.998857    3.039522    0.000000    0.000000   -0.000000
    4.176009    4.347270    4.347270    3.370526    0.000000    0.000000    0.000000
    5.220011    6.647160    6.647160    5.961263    0.000000   -0.000000    0.000000
    6.264013    7.864193    7.864193    8.165357    0.000000    0.000000    0.000000
    7.308015    7.676541    7.676541    7.904256    0.000000   -0.000000    0.000000
    8.352018    5.195396    5.195396    5.431357    0.000000    0.000000   -0.000000
    9.396020    4.290981    4.290981    4.639574    0.000000    0.000000    0.000000
   10.440022    2.448341    2.448341    2.844445    0.000000    0.000000    0.000000
   11.484024    1.802302    1.802302    2.096212    0.000000   -0.000000    0.000000
   12.528026    1.133593    1.133593    1.228418    0.000000    0.000000    0.000000
   13.572029    0.870088    0.870088    0.712614    0.000000    0.000000    0.000000
   14.616031    0.676057    0.676057    0.637142    0.000000    0.000000    0.000000
   15.660033    0.583795    0.583795    0.579053    0.000000    0.000000   -0.000000
   16.704035    0.661968    0.661968    0.633621    0.000000    0.000000    0.000000
   17.748037    0.503815    0.503815    0.491759    0.000000   -0.000000    0.000000
   18.792040    0.386887    0.386887    0.361406    0.000000    0.000000    0.000000
   19.836042    0.402802    0.402802    0.359269    0.000000    0.000000    0.000000
   20.880044    0.354016    0.354016    0.394922    0.000000    0.000000    0.000000
   21.924046    0.322805    0.322805    0.356492    0.000000    0.000000    0.000000
   22.968048    0.337859    0.337859    0.382803    0.000000    0.000000    0.000000
   24.012051    0.245129    0.245129    0.242034    0.000000    0.000000    0.000000
   25.056053    0.206297    0.206297    0.203183    0.000000    0.000000    0.000000
   26.100055    0.181162    0.181162    0.169333    0.000000    0.000000   -0.000000
   27.144057    0.205223    0.205223    0.198420    0.000000    0.000000    0.000000
   28.188059    0.156074    0.156074    0.175870    0.000000    0.000000    0.000000
   29.232061    0.167121    0.167121    0.160684    0.000000    0.000000    0.000000
   30.276064    0.176793    0.176793    0.153909    0.000000    0.000000    0.000000
   31.320066    0.171674    0.171674    0.177884    0.000000    0.000000    0.000000
   32.364068    0.168236    0.168236    0.169837    0.000000    0.000000    0.000000
   33.408070    0.171991    0.171991    0.174563    0.000000    0.000000    0.000000
   34.452072    0.150526    0.150526    0.154529    0.000000    0.000000    0.000000
   35.496075    0.140562    0.140562    0.155602    0.000000    0.000000    0.000000
   36.540077    0.138009    0.138009    0.129009    0.000000    0.000000    0.000000
   37.584079    0.142080    0.142080    0.134744    0.000000    0.000000    0.000000
   38.628081    0.140519    0.140519    0.140234    0.000000    0.000000    0.000000
   39.672083    0.121276    0.121276    0.120781    0.000000    0.000000    0.000000
   40.716086    0.133526    0.133526    0.135597    0.000000    0.000000    0.000000
   41.760088    0.113691    0.113691    0.118009    0.000000    0.000000    0.000000
   42.804090    0.137047    0.137047    0.142261    0.000000    0.000000    0.000000
   43.848092    0.127383    0.127383    0.143754    0.000000    0.000000    0.000000
   44.892094    0.125373    0.125373    0.109746    0.000000    0.000000    0.000000
   45.936097    0.139611    0.139611    0.131926    0.000000    0.000000    0.000000
   46.980099    0.122840    0.122840    0.123109    0.000000    0.000000   -0.000000
   48.024101    0.124602    0.124602    0.127774    0.000000    0.000000    0.000000
   49.068103    0.111298    0.111298    0.110825    0.000000    0.000000    0.000000
   50.112105    0.102710    0.102710    0.110632    0.000000    0.000000    0.000000
   51.156108    0.111355    0.111355    0.116915    0.000000   -0.000000    0.000000
   52.200110    0.100928    0.100928    0.103444    0.000000    0.000000    0.000000
   53.244112    0.097131    0.097131    0.101913    0.000000   -0.000000    0.000000
   54.288114    0.089893    0.089893    0.094450    0.000000    0.000000    0.000000
   55.332116    0.091935    0.091935    0.089192    0.000000   -0.000000    0.000000
   56.376119    0.081461    0.081461    0.085918    0.000000    0.000000    0.000000
   57.420121    0.075231    0.075231    0.075417    0.000000    0.000000   -0.000000
   58.464123    0.072088    0.072088    0.067155    0.000000    0.000000    0.000000
   59.508125    0.071613    0.071613    0.074306    0.000000    0.000000    0.000000
   60.552127    0.068764    0.068764    0.063846    0.000000    0.000000    0.000000
   61.596130    0.061556    0.061556    0.064119    0.000000    0.000000    0.000000
   62.640132    0.064513    0.064513    0.062723    0.000000    0.000000    0.000000
   63.684134    0.059894    0.059894    0.062284    0.000000    0.000000    0.000000
   64.728136    0.055511    0.055511    0.056171    0.000000    0.000000    0.000000
   65.772138    0.054984    0.054984    0.051720    0.000000    0.000000   -0.000000
   66.816141    0.049248    0.049248    0.046593    0.000000    0.000000    0.000000
   67.860143    0.050268    0.050268    0.047159    0.000000    0.000000    0.000000
   68.904145    0.049237    0.049237    0.049816    0.000000    0.000000    0.000000
   69.948147    0.046472    0.046472    0.046461    0.000000   -0.000000    0.000000
   70.992149    0.043885    0.043885    0.043232    0.000000    0.000000    0.000000
   72.036152    0.034698    0.034698    0.034309    0.000000    0.000000   -0.000000
   73.080154    0.027838    0.027838    0.027573    0.000000    0.000000    0.000000
   74.124156    0.024741    0.024741    0.025399    0.000000    0.000000    0.000000
   75.168158    0.023518    0.023518    0.026920    0.000000    0.000000    0.000000
   76.212160    0.027098    0.027098    0.027958    0.000000   -0.000000    0.000000
   77.256162    0.025940    0.025940    0.025592    0.000000    0.000000    0.000000
   78.300165    0.029285    0.029285    0.027737    0.000000    0.000000    0.000000
   79.344167    0.028367    0.028367    0.030811    0.000000    0.000000    0.000000
   80.388169    0.028932    0.028932    0.031834    0.000000    0.000000   -0.000000
   81.432171    0.033682    0.033682    0.036167    0.000000    0.000000   -0.000000
   82.476173    0.038206    0.038206    0.036596    0.000000    0.000000   -0.000000
   83.520176    0.042811    0.042811    0.041784    0.000000    0.000000    0.000000
   84.564178    0.056147    0.056147    0.055424    0.000000    0.000000    0.000000
   85.608180    0.056538    0.056538    0.055296    0.000000    0.000000   -0.000000
   86.652182    0.003991    0.003991    0.005287    0.000000    0.000000    0.000000
   87.696184   -0.000000   -0.000000   -0.000000    0.000000    0.000000    0.000000
   88.740187   -0.000000   -0.000000   -0.000000    0.000000    0.000000    0.000000
   89.784189   -0.000000   -0.000000   -0.000000    0.000000    0.000000    0.000000
   90.828191   -0.000000   -0.000000   -0.000000    0.000000    0.000000    0.000000
   91.872193   -0.000000   -0.000000   -0.000000    0.000000    0.000000    0.000000
   92.916195   -0.000000   -0.000000   -0.000000    0.000000    0.000000    0.000000
   93.960198   -0.000000   -0.000000   -0.000000    0.000000    0.000000    0.000000
   95.004200   -0.000000   -0.000000   -0.000000    0.000000    0.000000    0.000000
   96.048202   -0.000000   -0.000000   -0.000000    0.000000    0.000000    0.000000
   97.092204   -0.000000   -0.000000   -0.000000    0.000000    0.000000    0.000000
   98.136206   -0.000000   -0.000000   -0.000000    0.000000    0.000000    0.000000
   99.180209   -0.000000   -0.000000   -0.000000    0.000000    0.000000    0.000000
  100.224211   -0.000000   -0.000000   -0.000000    0.000000    0.000000    0.000000
  101.268213   -0.000000   -0.000000   -0.000000    0.000000    0.000000    0.000000
  102.312215   -0.000000   -0.000000   -0.000000    0.000000    0.000000    0.000000
  103.356217   -0.000000   -0.000000   -0.000000    0.000000    0.000000    0.000000

  frequency dependent      REAL DIELECTRIC FUNCTION (independent particle, no local field effects) current-current
     E(ev)        X           Y           Z          XY          YZ          ZX
  --------------------------------------------------------------------------------------------------------------
    0.000000    6.894837    6.894837    6.801595    0.000000    0.000000   -0.000000
    1.044002    7.504898    7.504898    7.367948    0.000000    0.000000   -0.000000
    2.088004    7.649387    7.649387    7.564085    0.000000   -0.000000   -0.000000
    3.132007    7.157068    7.157068    7.250739    0.000000   -0.000000    0.000000
    4.176009    6.085235    6.085235    6.991909    0.000000   -0.000000    0.000000
    5.220011    6.068520    6.068520    4.725731   -0.000000    0.000000    0.000000
    6.264013    3.349727    3.349727    4.271889    0.000000    0.000000   -0.000000
    7.308015    0.072090    0.072090    0.109791    0.000000   -0.000000    0.000000
    8.352018   -1.694065   -1.694065   -1.913477    0.000000    0.000000    0.000000
    9.396020   -1.498495   -1.498495   -1.373596   -0.000000   -0.000000    0.000000
   10.440022   -1.877854   -1.877854   -1.771687    0.000000    0.000000    0.000000
   11.484024   -1.347413   -1.347413   -1.527510   -0.000000   -0.000000    0.000000
   12.528026   -0.926688   -0.926688   -1.018921   -0.000000   -0.000000   -0.000000
   13.572029   -0.636335   -0.636335   -0.601723    0.000000   -0.000000   -0.000000
   14.616031   -0.312258   -0.312258   -0.323871    0.000000   -0.000000    0.000000
   15.660033   -0.047783   -0.047783   -0.070917   -0.000000   -0.000000   -0.000000
   16.704035    0.075558    0.075558    0.091911    0.000000   -0.000000   -0.000000
   17.748037    0.098854    0.098854    0.096166    0.000000   -0.000000   -0.000000
   18.792040    0.265950    0.265950    0.237240   -0.000000   -0.000000    0.000000
   19.836042    0.291479    0.291479    0.316219   -0.000000   -0.000000   -0.000000
   20.880044    0.357435    0.357435    0.387171    0.000000   -0.000000   -0.000000
   21.924046    0.473070    0.473070    0.434657   -0.000000   -0.000000   -0.000000
   22.968048    0.468426    0.468426    0.462631    0.000000    0.000000    0.000000
   24.012051    0.478078    0.478078    0.477771   -0.000000   -0.000000    0.000000
   25.056053    0.536780    0.536780    0.535273   -0.000000   -0.000000    0.000000
   26.100055    0.589699    0.589699    0.593209    0.000000    0.000000   -0.000000
   27.144057    0.639157    0.639157    0.641885   -0.000000   -0.000000    0.000000
   28.188059    0.654159    0.654159    0.653697    0.000000   -0.000000   -0.000000
   29.232061    0.711935    0.711935    0.709189   -0.000000   -0.000000    0.000000
   30.276064    0.704119    0.704119    0.706567   -0.000000    0.000000    0.000000
   31.320066    0.710725    0.710725    0.713982   -0.000000   -0.000000   -0.000000
   32.364068    0.729689    0.729689    0.736706    0.000000   -0.000000   -0.000000
   33.408070    0.743259    0.743259    0.739797    0.000000    0.000000    0.000000
   34.452072    0.757851    0.757851    0.754056    0.000000   -0.000000    0.000000
   35.496075    0.761270    0.761270    0.759945    0.000000   -0.000000   -0.000000
   36.540077    0.788970    0.788970    0.791203   -0.000000   -0.000000   -0.000000
   37.584079    0.806888    0.806888    0.808573   -0.000000   -0.000000    0.000000
   38.628081    0.814030    0.814030    0.814142    0.000000   -0.000000    0.000000
   39.672083    0.822793    0.822793    0.817875    0.000000   -0.000000   -0.000000
   40.716086    0.827133    0.827133    0.829251    0.000000   -0.000000    0.000000
   41.760088    0.834277    0.834277    0.834570    0.000000   -0.000000    0.000000
   42.804090    0.846580    0.846580    0.844128    0.000000   -0.000000   -0.000000
   43.848092    0.842063    0.842063    0.844639   -0.000000   -0.000000    0.000000
   44.892094    0.851029    0.851029    0.847996   -0.000000   -0.000000    0.000000
   45.936097    0.848903    0.848903    0.850904   -0.000000   -0.000000    0.000000
   46.980099    0.850066    0.850066    0.850850   -0.000000   -0.000000    0.000000
   48.024101    0.849299    0.849299    0.853356    0.000000   -0.000000    0.000000
   49.068103    0.851625    0.851625    0.852815   -0.000000   -0.000000   -0.000000
   50.112105    0.856885    0.856885    0.857036   -0.000000    0.000000    0.000000
   51.156108    0.850394    0.850394    0.855225   -0.000000   -0.000000    0.000000
   52.200110    0.851414    0.851414    0.852913    0.000000   -0.000000   -0.000000
   53.244112    0.858833    0.858833    0.855932    0.000000    0.000000   -0.000000
   54.288114    0.861392    0.861392    0.860022    0.000000    0.000000   -0.000000
   55.332116    0.858271    0.858271    0.854312    0.000000   -0.000000   -0.000000
   56.376119    0.859263    0.859263    0.857183    0.000000   -0.000000    0.000000
   57.420121    0.861169    0.861169    0.860156   -0.000000    0.000000    0.000000
   58.464123    0.867075    0.867075    0.868935   -0.000000   -0.000000    0.000000
   59.508125    0.868934    0.868934    0.868428    0.000000   -0.000000    0.000000
   60.552127    0.871653    0.871653    0.869693    0.000000    0.000000    0.000000
   61.596130    0.875441    0.875441    0.874724    0.000000   -0.000000    0.000000
   62.640132    0.877235    0.877235    0.878220   -0.000000   -0.000000   -0.000000
   63.684134    0.881361    0.881361    0.882996   -0.000000   -0.000000    0.000000
   64.728136    0.881027    0.881027    0.882023    0.000000   -0.000000   -0.000000
   65.772138    0.881508    0.881508    0.881680    0.000000    0.000000    0.000000
   66.816141    0.887593    0.887593    0.888804    0.000000   -0.000000    0.000000
   67.860143    0.889479    0.889479    0.890839   -0.000000   -0.000000    0.000000
   68.904145    0.891325    0.891325    0.890977    0.000000   -0.000000    0.000000
   69.948147    0.890713    0.890713    0.890955    0.000000   -0.000000    0.000000
   70.992149    0.890925    0.890925    0.890851   -0.000000   -0.000000   -0.000000
   72.036152    0.890193    0.890193    0.890528    0.000000   -0.000000    0.000000
   73.080154    0.897251    0.897251    0.897826   -0.000000   -0.000000    0.000000
   74.124156    0.903435    0.903435    0.904350   -0.000000   -0.000000    0.000000
   75.168158    0.909751    0.909751    0.908665    0.000000   -0.000000    0.000000
   76.212160    0.915157    0.915157    0.914808    0.000000   -0.000000    0.000000
   77.256162    0.915335    0.915335    0.915441   -0.000000   -0.000000   -0.000000
   78.300165    0.919358    0.919358    0.918218   -0.000000   -0.000000    0.000000
   79.344167    0.921162    0.921162    0.921456   -0.000000   -0.000000    0.000000
   80.388169    0.925241    0.925241    0.924018   -0.000000   -0.000000    0.000000
   81.432171    0.926325    0.926325    0.925733   -0.000000    0.000000   -0.000000
   82.476173    0.926041    0.926041    0.925547   -0.000000   -0.000000   -0.000000
   83.520176    0.926382    0.926382    0.925605   -0.000000   -0.000000    0.000000
   84.564178    0.917723    0.917723    0.919829   -0.000000   -0.000000    0.000000
   85.608180    0.895543    0.895543    0.894776    0.000000   -0.000000   -0.000000
   86.652182    0.874472    0.874472    0.875268   -0.000000   -0.000000   -0.000000
   87.696184    0.901705    0.901705    0.901824   -0.000000   -0.000000    0.000000
   88.740187    0.911919    0.911919    0.912020   -0.000000   -0.000000    0.000000
   89.784189    0.918340    0.918340    0.918420   -0.000000   -0.000000    0.000000
   90.828191    0.923114    0.923114    0.923179   -0.000000   -0.000000    0.000000
   91.872193    0.926964    0.926964    0.927018   -0.000000   -0.000000    0.000000
   92.916195    0.930219    0.930219    0.930266   -0.000000   -0.000000    0.000000
   93.960198    0.933057    0.933057    0.933098   -0.000000   -0.000000    0.000000
   95.004200    0.935584    0.935584    0.935620   -0.000000   -0.000000    0.000000
   96.048202    0.937867    0.937867    0.937899   -0.000000   -0.000000    0.000000
   97.092204    0.939955    0.939955    0.939984   -0.000000   -0.000000    0.000000
   98.136206    0.941880    0.941880    0.941907   -0.000000   -0.000000    0.000000
   99.180209    0.943668    0.943668    0.943693   -0.000000   -0.000000    0.000000
  100.224211    0.945338    0.945338    0.945361   -0.000000   -0.000000    0.000000
  101.268213    0.946905    0.946905    0.946926   -0.000000   -0.000000    0.000000
  102.312215    0.948381    0.948381    0.948401   -0.000000   -0.000000    0.000000
  103.356217    0.949776    0.949776    0.949795   -0.000000   -0.000000    0.000000
 
 The outermost node in the dielectric function lies at epsilon=  16.1


--------------------------------------------------------------------------------------------------------


    OPTICS:  cpu time    2.3035: real time    2.5463
    4ORBIT:  cpu time    0.0000: real time    0.0000
 


 total charge     
 
# of ion       s       p       d       tot
------------------------------------------
    1        0.318   0.298   9.381   9.997
    2        0.318   0.298   9.381   9.997
    3        0.318   0.298   9.381   9.997
    4        0.318   0.298   9.381   9.997
    5        0.814   0.725   9.931  11.470
    6        0.814   0.725   9.931  11.470
    7        0.814   0.725   9.931  11.470
    8        0.814   0.725   9.931  11.470
    9        1.446   2.431   0.039   3.916
   10        1.446   2.431   0.039   3.916
   11        1.446   2.431   0.039   3.916
   12        1.446   2.431   0.039   3.916
   13        1.446   2.431   0.039   3.916
   14        1.446   2.431   0.039   3.916
   15        1.446   2.431   0.039   3.916
   16        1.446   2.431   0.039   3.916
--------------------------------------------------
tot         16.094  23.544  77.556 117.194
 

 total amount of memory used by VASP MPI-rank0   795296. kBytes
=======================================================================

   base      :      30000. kBytes
   nonl-proj :     127085. kBytes
   fftplans  :       6288. kBytes
   grid      :       6257. kBytes
   one-center:        248. kBytes
   HF        :        194. kBytes
   nonlr-proj:       3916. kBytes
   wavefun   :     531036. kBytes
   fock_wrk  :      90272. kBytes
 
  
  
 General timing and accounting informations for this job:
 ========================================================
  
                  Total CPU time used (sec):     6354.713
                            User time (sec):     6256.239
                          System time (sec):       98.474
                         Elapsed time (sec):     6414.552
  
                   Maximum memory used (kb):     2500816.
                   Average memory used (kb):           0.
  
                          Minor page faults:       295921
                          Major page faults:            4
                 Voluntary context switches:        49789
