 vasp.6.1.2 22Jul20 (build Oct 22 2020 12:12:26) complex                        
  
 executed on                Eagle date 2020.10.27  18:58:35
 running on   72 total cores
 distrk:  each k-point on   18 cores,    4 groups
 distr:  one band on NCORE=   1 cores,   18 groups


--------------------------------------------------------------------------------------------------------


 INCAR:
 POTCAR:   PAW_PBE Cu 05Jan2001                   
 POTCAR:   PAW_PBE In_d 06Sep2000                 
 POTCAR:   PAW_PBE Se 06Sep2000                   
 -----------------------------------------------------------------------------
|                                                                             |
|           W    W    AA    RRRRR   N    N  II  N    N   GGGG   !!!           |
|           W    W   A  A   R    R  NN   N  II  NN   N  G    G  !!!           |
|           W    W  A    A  R    R  N N  N  II  N N  N  G       !!!           |
|           W WW W  AAAAAA  RRRRR   N  N N  II  N  N N  G  GGG   !            |
|           WW  WW  A    A  R   R   N   NN  II  N   NN  G    G                |
|           W    W  A    A  R    R  N    N  II  N    N   GGGG   !!!           |
|                                                                             |
|     For optimal performance we recommend to set                             |
|       NCORE = 4 - approx SQRT(number of cores).                             |
|     NCORE specifies how many cores store one orbital (NPAR=cpu/NCORE).      |
|     This setting can greatly improve the performance of VASP for DFT.       |
|     The default, NCORE=1 might be grossly inefficient on modern             |
|     multi-core architectures or massively parallel machines. Do your        |
|     own testing!!!!                                                         |
|     Unfortunately you need to use the default for GW and RPA                |
|     calculations (for HF NCORE is supported but not extensively tested      |
|     yet).                                                                   |
|                                                                             |
 -----------------------------------------------------------------------------

 POTCAR:   PAW_PBE Cu 05Jan2001                   
   VRHFIN =Cu: d10 p1                                                                               
   LEXCH  = PE                                                                                      
   EATOM  =  1390.9800 eV,  102.2341 Ry                                                             
                                                                                                    
   TITEL  = PAW_PBE Cu 05Jan2001                                                                    
   LULTRA =        F    use ultrasoft PP ?                                                          
   IUNSCR =        1    unscreen: 0-lin 1-nonlin 2-no                                               
   RPACOR =    2.000    partial core radius                                                         
   POMASS =   63.546; ZVAL   =   11.000    mass and valenz                                          
   RCORE  =    2.300    outmost cutoff radius                                                       
   RWIGS  =    2.480; RWIGS  =    1.312    wigner-seitz radius (au A)                               
   ENMAX  =  273.214; ENMIN  =  204.910 eV                                                          
   RCLOC  =    1.712    cutoff for local pot                                                        
   LCOR   =        T    correct aug charges                                                         
   LPAW   =        T    paw PP                                                                      
   EAUG   =  516.456                                                                                
   DEXC   =    -.008                                                                                
   RMAX   =    2.789    core radius for proj-oper                                                   
   RAUG   =    1.300    factor for augmentation sphere                                              
   RDEP   =    2.302    radius for radial grids                                                     
   QCUT   =   -4.481; QGAM   =    8.962    optimization parameters                                  
                                                                                                    
   Description                                                                                      
     l     E      TYP  RCUT    TYP  RCUT                                                            
     2   .000     23  2.300                                                                         
     2   .000     23  2.300                                                                         
     0   .000     23  2.300                                                                         
     0   .000     23  2.300                                                                         
     1  -.200     23  2.300                                                                         
     1   .000     23  2.300                                                                         
     3   .000      7   .000                                                                         
  local pseudopotential read in
  partial core-charges read in
  atomic valenz-charges read in
  non local Contribution for L=           2  read in
    real space projection operators read in
  non local Contribution for L=           2  read in
    real space projection operators read in
  non local Contribution for L=           0  read in
    real space projection operators read in
  non local Contribution for L=           0  read in
    real space projection operators read in
  non local Contribution for L=           1  read in
    real space projection operators read in
  non local Contribution for L=           1  read in
    real space projection operators read in
    PAW grid and wavefunctions read in
 
   number of l-projection  operators is LMAX  =           6
   number of lm-projection operators is LMMAX =          18
 
 POTCAR:   PAW_PBE In_d 06Sep2000                 
   VRHFIN =In: s2p1                                                                                 
   LEXCH  = PE                                                                                      
   EATOM  =  1576.8738 eV,  115.8970 Ry                                                             
                                                                                                    
   TITEL  = PAW_PBE In_d 06Sep2000                                                                  
   LULTRA =        F    use ultrasoft PP ?                                                          
   IUNSCR =        1    unscreen: 0-lin 1-nonlin 2-no                                               
   RPACOR =    2.200    partial core radius                                                         
   POMASS =  114.820; ZVAL   =   13.000    mass and valenz                                          
   RCORE  =    2.500    outmost cutoff radius                                                       
   RWIGS  =    3.170; RWIGS  =    1.677    wigner-seitz radius (au A)                               
   ENMAX  =  239.218; ENMIN  =  179.413 eV                                                          
   ICORE  =        3    local potential                                                             
   LCOR   =        T    correct aug charges                                                         
   LPAW   =        T    paw PP                                                                      
   EAUG   =  449.704                                                                                
   DEXC   =    -.003                                                                                
   RMAX   =    2.981    core radius for proj-oper                                                   
   RAUG   =    1.300    factor for augmentation sphere                                              
   RDEP   =    2.630    radius for radial grids                                                     
   QCUT   =   -4.193; QGAM   =    8.386    optimization parameters                                  
                                                                                                    
   Description                                                                                      
     l     E      TYP  RCUT    TYP  RCUT                                                            
     2   .000     23  2.500                                                                         
     2  -.100     23  2.500                                                                         
     0   .000     23  2.500                                                                         
     0   .000     23  2.500                                                                         
     1   .000     23  2.500                                                                         
     1   .000     23  2.500                                                                         
     3  -.100      7  2.500                                                                         
  local pseudopotential read in
  partial core-charges read in
  atomic valenz-charges read in
  non local Contribution for L=           2  read in
    real space projection operators read in
  non local Contribution for L=           2  read in
    real space projection operators read in
  non local Contribution for L=           0  read in
    real space projection operators read in
  non local Contribution for L=           0  read in
    real space projection operators read in
  non local Contribution for L=           1  read in
    real space projection operators read in
  non local Contribution for L=           1  read in
    real space projection operators read in
    PAW grid and wavefunctions read in
 
   number of l-projection  operators is LMAX  =           6
   number of lm-projection operators is LMMAX =          18
 
 POTCAR:   PAW_PBE Se 06Sep2000                   
   VRHFIN =Se: s2p4                                                                                 
   LEXCH  = PE                                                                                      
   EATOM  =   256.9644 eV,   18.8864 Ry                                                             
                                                                                                    
   TITEL  = PAW_PBE Se 06Sep2000                                                                    
   LULTRA =        F    use ultrasoft PP ?                                                          
   IUNSCR =        1    unscreen: 0-lin 1-nonlin 2-no                                               
   RPACOR =    1.900    partial core radius                                                         
   POMASS =   78.960; ZVAL   =    6.000    mass and valenz                                          
   RCORE  =    2.100    outmost cutoff radius                                                       
   RWIGS  =    2.200; RWIGS  =    1.164    wigner-seitz radius (au A)                               
   ENMAX  =  211.534; ENMIN  =  158.651 eV                                                          
   ICORE  =        3    local potential                                                             
   LCOR   =        T    correct aug charges                                                         
   LPAW   =        T    paw PP                                                                      
   EAUG   =  446.842                                                                                
   DEXC   =    -.031                                                                                
   RMAX   =    3.170    core radius for proj-oper                                                   
   RAUG   =    1.300    factor for augmentation sphere                                              
   RDEP   =    2.177    radius for radial grids                                                     
   QCUT   =   -3.943; QGAM   =    7.886    optimization parameters                                  
                                                                                                    
   Description                                                                                      
     l     E      TYP  RCUT    TYP  RCUT                                                            
     0   .000     23  2.100                                                                         
     0   .000     23  2.100                                                                         
     1   .000     23  2.100                                                                         
     1   .000     23  2.100                                                                         
     2   .000     23  2.100                                                                         
     3  -.100      7  2.100                                                                         
  local pseudopotential read in
  partial core-charges read in
  atomic valenz-charges read in
  non local Contribution for L=           0  read in
    real space projection operators read in
  non local Contribution for L=           0  read in
    real space projection operators read in
  non local Contribution for L=           1  read in
    real space projection operators read in
  non local Contribution for L=           1  read in
    real space projection operators read in
  non local Contribution for L=           2  read in
    real space projection operators read in
    PAW grid and wavefunctions read in
 
   number of l-projection  operators is LMAX  =           5
   number of lm-projection operators is LMMAX =          13
 
 PAW_PBE Cu 05Jan2001                   :
 energy of atom  1       EATOM=-1390.9800
 kinetic energy error for atom=    0.0323 (will be added to EATOM!!)
 PAW_PBE In_d 06Sep2000                 :
 energy of atom  2       EATOM=-1576.8738
 kinetic energy error for atom=    0.0380 (will be added to EATOM!!)
 PAW_PBE Se 06Sep2000                   :
 energy of atom  3       EATOM= -256.9644
 kinetic energy error for atom=    0.0040 (will be added to EATOM!!)
 
 
 POSCAR: Cu1-In1-Se2 'I -4 2 d'  #122
  positions in direct lattice
  No initial velocities read in
 exchange correlation table for  LEXCH =        8
   RHO(1)=    0.500       N(1)  =     2000
   RHO(2)=  100.500       N(2)  =     4000
 


--------------------------------------------------------------------------------------------------------


 ion  position               nearest neighbor table
   1  0.000  0.500  0.250-   9 2.46  11 2.46  13 2.46  14 2.46
   2  0.000  0.000  0.000-  10 2.46  12 2.46  13 2.46  14 2.46
   3  0.500  0.000  0.750-  10 2.46  12 2.46  15 2.46  16 2.46
   4  0.500  0.500  0.500-   9 2.46  11 2.46  15 2.46  16 2.46
   5  0.000  0.500  0.750-  15 2.56  16 2.56  10 2.56  12 2.56
   6  0.000  0.000  0.500-  15 2.56  16 2.56   9 2.56  11 2.56
   7  0.500  0.000  0.250-  13 2.56  14 2.56   9 2.56  11 2.56
   8  0.500  0.500  0.000-  13 2.56  14 2.56  10 2.56  12 2.56
   9  0.750  0.265  0.375-   1 2.46   4 2.46   6 2.56   7 2.56
  10  0.250  0.765  0.875-   2 2.46   3 2.46   5 2.56   8 2.56
  11  0.250  0.735  0.375-   1 2.46   4 2.46   6 2.56   7 2.56
  12  0.750  0.235  0.875-   2 2.46   3 2.46   5 2.56   8 2.56
  13  0.235  0.250  0.125-   1 2.46   2 2.46   7 2.56   8 2.56
  14  0.765  0.750  0.125-   1 2.46   2 2.46   7 2.56   8 2.56
  15  0.735  0.750  0.625-   3 2.46   4 2.46   5 2.56   6 2.56
  16  0.265  0.250  0.625-   3 2.46   4 2.46   5 2.56   6 2.56
 
  LATTYP: Found a simple tetragonal cell.
 ALAT       =     5.7824000000
 C/A-ratio  =     2.0094078583
  
  Lattice vectors:
  
 A1 = (   5.7824000000,   0.0000000000,   0.0000000000)
 A2 = (   0.0000000000,   5.7824000000,   0.0000000000)
 A3 = (   0.0000000000,   0.0000000000,  11.6192000000)


Analysis of symmetry for initial positions (statically):
=====================================================================
 Subroutine PRICEL returns following result:
 
  LATTYP: Found a body centered tetragonal cell.
 ALAT       =     5.7824000000
 C/A-ratio  =     2.0094078583
  
  Lattice vectors:
  
 A1 = (   2.8912000000,  -2.8912000000,   5.8096000000)
 A2 = (  -2.8912000000,   2.8912000000,   5.8096000000)
 A3 = (  -2.8912000000,  -2.8912000000,  -5.8096000000)
 
   2 primitive cells build up your supercell.
 

 Routine SETGRP: Setting up the symmetry group for a 
 simple tetragonal supercell.


 Subroutine GETGRP returns: Found  8 space group operations
 (whereof  4 operations were pure point group operations)
 out of a pool of 16 trial point group operations.


The static configuration has the point symmetry S_4 .
 The point group associated with its full space group is D_2d.


Analysis of symmetry for dynamics (positions and initial velocities):
=====================================================================
 Subroutine PRICEL returns following result:
 
  LATTYP: Found a body centered tetragonal cell.
 ALAT       =     5.7824000000
 C/A-ratio  =     2.0094078583
  
  Lattice vectors:
  
 A1 = (   2.8912000000,  -2.8912000000,   5.8096000000)
 A2 = (  -2.8912000000,   2.8912000000,   5.8096000000)
 A3 = (  -2.8912000000,  -2.8912000000,  -5.8096000000)
 
   2 primitive cells build up your supercell.
 

 Routine SETGRP: Setting up the symmetry group for a 
 simple tetragonal supercell.


 Subroutine GETGRP returns: Found  8 space group operations
 (whereof  4 operations were pure point group operations)
 out of a pool of 16 trial point group operations.


The dynamic configuration has the point symmetry S_4 .
 The point group associated with its full space group is D_2d.


 Subroutine INISYM returns: Found  8 space group operations
 (whereof  4 operations are pure point group operations),
 and found     2 'primitive' translations


----------------------------------------------------------------------------------------

                                     Primitive cell                                     

  volume of cell :     194.2507

  direct lattice vectors                    reciprocal lattice vectors
     2.891200000 -2.891200000  5.809600000     0.000000000 -0.172938572  0.086064445
    -2.891200000  2.891200000  5.809600000    -0.172938572 -0.000000000  0.086064445
    -2.891200000 -2.891200000 -5.809600000    -0.172938572 -0.172938572  0.000000000

  length of vectors
     7.104190808  7.104190808  7.104190808     0.193170491  0.193170491  0.244572074

  position of ions in fractional coordinates (direct lattice)
     0.750000000  0.250000000  0.500000000
     0.000000000  0.000000000  0.000000000
     0.500000000  0.500000000  0.000000000
     0.250000000  0.750000000  0.500000000
     0.110000000  0.625000000  0.985000000
     0.640000000  0.125000000  0.015000000
     0.875000000  0.890000000  0.515000000
     0.375000000  0.360000000  0.485000000

  ion indices of the primitive-cell ions
   primitive index   ion index
                 1           1
                 2           2
                 3           6
                 4           7
                 5           9
                 6          11
                 7          13
                 8          14

----------------------------------------------------------------------------------------

 
 
 KPOINTS: KPOINTS                                 

Automatic generation of k-mesh.
Space group operators:
 irot       det(A)        alpha          n_x          n_y          n_z        tau_x        tau_y        tau_z
    1     1.000000     0.000000     1.000000     0.000000     0.000000     0.000000     0.000000     0.000000
    2    -1.000000    90.000000     0.000000     0.000000    -1.000000     0.000000     0.000000     0.000000
    3     1.000000   180.000000     0.000000     0.000000     1.000000     0.000000     0.000000     0.000000
    4    -1.000000    90.000000     0.000000     0.000000     1.000000     0.000000     0.000000     0.000000
    5     1.000000   180.000000     0.000000     1.000000     0.000000     0.000000     0.500000     0.250000
    6    -1.000000   180.000000     0.707107     0.707107     0.000000     0.000000     0.500000     0.250000
    7     1.000000   180.000000     1.000000     0.000000     0.000000     0.000000     0.500000     0.250000
    8    -1.000000   180.000000     0.707107    -0.707107     0.000000     0.000000     0.500000     0.250000
 
 Subroutine IBZKPT returns following result:
 ===========================================
 
 Found     63 irreducible k-points:
 
 Following reciprocal coordinates:
            Coordinates               Weight
  0.000000  0.000000  0.000000      1.000000
  0.100000  0.000000  0.000000      4.000000
  0.200000  0.000000  0.000000      4.000000
  0.300000  0.000000  0.000000      4.000000
  0.400000  0.000000  0.000000      4.000000
  0.500000  0.000000  0.000000      2.000000
  0.100000  0.100000  0.000000      4.000000
  0.200000  0.100000  0.000000      8.000000
  0.300000  0.100000  0.000000      8.000000
  0.400000  0.100000  0.000000      8.000000
  0.500000  0.100000  0.000000      4.000000
  0.200000  0.200000  0.000000      4.000000
  0.300000  0.200000  0.000000      8.000000
  0.400000  0.200000  0.000000      8.000000
  0.500000  0.200000  0.000000      4.000000
  0.300000  0.300000  0.000000      4.000000
  0.400000  0.300000  0.000000      8.000000
  0.500000  0.300000  0.000000      4.000000
  0.400000  0.400000  0.000000      4.000000
  0.500000  0.400000  0.000000      4.000000
  0.500000  0.500000  0.000000      1.000000
  0.000000  0.000000  0.200000      2.000000
  0.100000  0.000000  0.200000      8.000000
  0.200000  0.000000  0.200000      8.000000
  0.300000  0.000000  0.200000      8.000000
  0.400000  0.000000  0.200000      8.000000
  0.500000  0.000000  0.200000      4.000000
  0.100000  0.100000  0.200000      8.000000
  0.200000  0.100000  0.200000     16.000000
  0.300000  0.100000  0.200000     16.000000
  0.400000  0.100000  0.200000     16.000000
  0.500000  0.100000  0.200000      8.000000
  0.200000  0.200000  0.200000      8.000000
  0.300000  0.200000  0.200000     16.000000
  0.400000  0.200000  0.200000     16.000000
  0.500000  0.200000  0.200000      8.000000
  0.300000  0.300000  0.200000      8.000000
  0.400000  0.300000  0.200000     16.000000
  0.500000  0.300000  0.200000      8.000000
  0.400000  0.400000  0.200000      8.000000
  0.500000  0.400000  0.200000      8.000000
  0.500000  0.500000  0.200000      2.000000
  0.000000  0.000000  0.400000      2.000000
  0.100000  0.000000  0.400000      8.000000
  0.200000  0.000000  0.400000      8.000000
  0.300000  0.000000  0.400000      8.000000
  0.400000  0.000000  0.400000      8.000000
  0.500000  0.000000  0.400000      4.000000
  0.100000  0.100000  0.400000      8.000000
  0.200000  0.100000  0.400000     16.000000
  0.300000  0.100000  0.400000     16.000000
  0.400000  0.100000  0.400000     16.000000
  0.500000  0.100000  0.400000      8.000000
  0.200000  0.200000  0.400000      8.000000
  0.300000  0.200000  0.400000     16.000000
  0.400000  0.200000  0.400000     16.000000
  0.500000  0.200000  0.400000      8.000000
  0.300000  0.300000  0.400000      8.000000
  0.400000  0.300000  0.400000     16.000000
  0.500000  0.300000  0.400000      8.000000
  0.400000  0.400000  0.400000      8.000000
  0.500000  0.400000  0.400000      8.000000
  0.500000  0.500000  0.400000      2.000000
 
 Following cartesian coordinates:
            Coordinates               Weight
  0.000000  0.000000  0.000000      1.000000
  0.017294  0.000000  0.000000      4.000000
  0.034588  0.000000  0.000000      4.000000
  0.051882  0.000000  0.000000      4.000000
  0.069175  0.000000  0.000000      4.000000
  0.086469  0.000000  0.000000      2.000000
  0.017294  0.017294  0.000000      4.000000
  0.034588  0.017294  0.000000      8.000000
  0.051882  0.017294  0.000000      8.000000
  0.069175  0.017294  0.000000      8.000000
  0.086469  0.017294  0.000000      4.000000
  0.034588  0.034588  0.000000      4.000000
  0.051882  0.034588  0.000000      8.000000
  0.069175  0.034588  0.000000      8.000000
  0.086469  0.034588  0.000000      4.000000
  0.051882  0.051882  0.000000      4.000000
  0.069175  0.051882  0.000000      8.000000
  0.086469  0.051882  0.000000      4.000000
  0.069175  0.069175  0.000000      4.000000
  0.086469  0.069175  0.000000      4.000000
  0.086469  0.086469  0.000000      1.000000
  0.000000  0.000000  0.017213      2.000000
  0.017294  0.000000  0.017213      8.000000
  0.034588  0.000000  0.017213      8.000000
  0.051882  0.000000  0.017213      8.000000
  0.069175  0.000000  0.017213      8.000000
  0.086469  0.000000  0.017213      4.000000
  0.017294  0.017294  0.017213      8.000000
  0.034588  0.017294  0.017213     16.000000
  0.051882  0.017294  0.017213     16.000000
  0.069175  0.017294  0.017213     16.000000
  0.086469  0.017294  0.017213      8.000000
  0.034588  0.034588  0.017213      8.000000
  0.051882  0.034588  0.017213     16.000000
  0.069175  0.034588  0.017213     16.000000
  0.086469  0.034588  0.017213      8.000000
  0.051882  0.051882  0.017213      8.000000
  0.069175  0.051882  0.017213     16.000000
  0.086469  0.051882  0.017213      8.000000
  0.069175  0.069175  0.017213      8.000000
  0.086469  0.069175  0.017213      8.000000
  0.086469  0.086469  0.017213      2.000000
  0.000000  0.000000  0.034426      2.000000
  0.017294  0.000000  0.034426      8.000000
  0.034588  0.000000  0.034426      8.000000
  0.051882  0.000000  0.034426      8.000000
  0.069175  0.000000  0.034426      8.000000
  0.086469  0.000000  0.034426      4.000000
  0.017294  0.017294  0.034426      8.000000
  0.034588  0.017294  0.034426     16.000000
  0.051882  0.017294  0.034426     16.000000
  0.069175  0.017294  0.034426     16.000000
  0.086469  0.017294  0.034426      8.000000
  0.034588  0.034588  0.034426      8.000000
  0.051882  0.034588  0.034426     16.000000
  0.069175  0.034588  0.034426     16.000000
  0.086469  0.034588  0.034426      8.000000
  0.051882  0.051882  0.034426      8.000000
  0.069175  0.051882  0.034426     16.000000
  0.086469  0.051882  0.034426      8.000000
  0.069175  0.069175  0.034426      8.000000
  0.086469  0.069175  0.034426      8.000000
  0.086469  0.086469  0.034426      2.000000
 
 -----------------------------------------------------------------------------
|                                                                             |
|           W    W    AA    RRRRR   N    N  II  N    N   GGGG   !!!           |
|           W    W   A  A   R    R  NN   N  II  NN   N  G    G  !!!           |
|           W    W  A    A  R    R  N N  N  II  N N  N  G       !!!           |
|           W WW W  AAAAAA  RRRRR   N  N N  II  N  N N  G  GGG   !            |
|           WW  WW  A    A  R   R   N   NN  II  N   NN  G    G                |
|           W    W  A    A  R    R  N    N  II  N    N   GGGG   !!!           |
|                                                                             |
|     The number of bands has been changed from the values supplied in        |
|     the INCAR file. This is a result of running the parallel version.       |
|     The orbitals not found in the WAVECAR file will be initialized with     |
|     random numbers, which is usually adequate. For correlated               |
|     calculations, however, you should redo the groundstate calculation.     |
|     I found NBANDS = 640. Now, NBANDS = 648.                                |
|                                                                             |
 -----------------------------------------------------------------------------



--------------------------------------------------------------------------------------------------------




 Dimension of arrays:
   k-points           NKPTS =     63   k-points in BZ     NKDIM =     63   number of bands    NBANDS=    648
   number of dos      NEDOS =    301   number of ions     NIONS =     16
   non local maximal  LDIM  =      6   non local SUM 2l+1 LMDIM =     18
   total plane-waves  NPLWV =  90720
   max r-space proj   IRMAX =      1   max aug-charges    IRDMAX=  81658
   dimension x,y,z NGX =    36 NGY =   36 NGZ =   70
   dimension x,y,z NGXF=    72 NGYF=   72 NGZF=  140
   support grid    NGXF=   144 NGYF=  144 NGZF=  280
   ions per type =               4   4   8
   NGX,Y,Z   is equivalent  to a cutoff of  10.35, 10.35, 10.02 a.u.
   NGXF,Y,Z  is equivalent  to a cutoff of  20.70, 20.70, 20.03 a.u.

 SYSTEM =  CuInSe                                  
 POSCAR =  Cu1-In1-Se2 'I -4 2 d'  #122            

 Startparameter for this run:
   NWRITE =      2    write-flag & timer
   PREC   = accura    normal or accurate (medium, high low for compatibility)
   ISTART =      0    job   : 0-new  1-cont  2-samecut
   ICHARG =      2    charge: 1-file 2-atom 10-const
   ISPIN  =      1    spin polarized calculation?
   LNONCOLLINEAR =      F non collinear calculations
   LSORBIT =      F    spin-orbit coupling
   INIWAV =      1    electr: 0-lowe 1-rand  2-diag
   LASPH  =      F    aspherical Exc in radial PAW
   METAGGA=      F    non-selfconsistent MetaGGA calc.

 Electronic Relaxation 1
   ENCUT  =  300.0 eV  22.05 Ry    4.70 a.u.   8.17  8.17 16.41*2*pi/ulx,y,z
   ENINI  =  300.0     initial cutoff
   ENAUG  =  516.5 eV  augmentation charge cutoff
   NELM   =     80;   NELMIN=  3; NELMDL= -5     # of ELM steps 
   EDIFF  = 0.1E-04   stopping-criterion for ELM
   LREAL  =      F    real-space projection
   NLSPLINE    = F    spline interpolate recip. space projectors
   LCOMPAT=      F    compatible to vasp.4.4
   GGA_COMPAT  = T    GGA compatible to vasp.4.4-vasp.4.6
   LMAXPAW     = -100 max onsite density
   LMAXMIX     =    4 max onsite mixed and CHGCAR
   VOSKOWN=      0    Vosko Wilk Nusair interpolation
   ROPT   =    0.00000   0.00000   0.00000
 Ionic relaxation
   EDIFFG = 0.1E-03   stopping-criterion for IOM
   NSW    =      0    number of steps for IOM
   NBLOCK =      1;   KBLOCK =      1    inner block; outer block 
   IBRION =     -1    ionic relax: 0-MD 1-quasi-New 2-CG
   NFREE  =      0    steps in history (QN), initial steepest desc. (CG)
   ISIF   =      2    stress and relaxation
   IWAVPR =     10    prediction:  0-non 1-charg 2-wave 3-comb
   ISYM   =      2    0-nonsym 1-usesym 2-fastsym
   LCORR  =      T    Harris-Foulkes like correction to forces

   POTIM  = 0.5000    time-step for ionic-motion
   TEIN   =    0.0    initial temperature
   TEBEG  =    0.0;   TEEND  =   0.0 temperature during run
   SMASS  =  -3.00    Nose mass-parameter (am)
   estimated Nose-frequenzy (Omega)   =  0.10E-29 period in steps = 0.13E+47 mass=  -0.764E-27a.u.
   SCALEE = 1.0000    scale energy and forces
   NPACO  =    256;   APACO  = 16.0  distance and # of slots for P.C.
   PSTRESS=    0.0 pullay stress

  Mass of Ions in am
   POMASS =  63.55114.82 78.96
  Ionic Valenz
   ZVAL   =  11.00 13.00  6.00
  Atomic Wigner-Seitz radii
   RWIGS  =  -1.00 -1.00 -1.00
  virtual crystal weights 
   VCA    =   1.00  1.00  1.00
   NELECT =     144.0000    total number of electrons
   NUPDOWN=      -1.0000    fix difference up-down

 DOS related values:
   EMIN   =  10.00;   EMAX   =-10.00  energy-range for DOS
   EFERMI =   0.00
   ISMEAR =     0;   SIGMA  =   0.01  broadening in eV -4-tet -1-fermi 0-gaus

 Electronic relaxation 2 (details)
   IALGO  =     38    algorithm
   LDIAG  =      T    sub-space diagonalisation (order eigenvalues)
   LSUBROT=      F    optimize rotation matrix (better conditioning)
   TURBO    =      0    0=normal 1=particle mesh
   IRESTART =      0    0=no restart 2=restart with 2 vectors
   NREBOOT  =      0    no. of reboots
   NMIN     =      0    reboot dimension
   EREF     =   0.00    reference energy to select bands
   IMIX   =      4    mixing-type and parameters
     AMIX     =   0.40;   BMIX     =  1.00
     AMIX_MAG =   1.60;   BMIX_MAG =  1.00
     AMIN     =   0.10
     WC   =   100.;   INIMIX=   1;  MIXPRE=   1;  MAXMIX= -45

 Intra band minimization:
   WEIMIN = 0.0000     energy-eigenvalue tresh-hold
   EBREAK =  0.39E-08  absolut break condition
   DEPER  =   0.30     relativ break condition  

   TIME   =   0.40     timestep for ELM

  volume/ion in A,a.u.               =      24.28       163.86
  Fermi-wavevector in a.u.,A,eV,Ry     =   1.175975  2.222271 18.815737  1.382918
  Thomas-Fermi vector in A             =   2.312347
 
 Write flags
   LWAVE        =      T    write WAVECAR
   LDOWNSAMPLE  =      F    k-point downsampling of WAVECAR
   LCHARG       =      T    write CHGCAR
   LVTOT        =      F    write LOCPOT, total local potential
   LVHAR        =      F    write LOCPOT, Hartree potential only
   LELF         =      F    write electronic localiz. function (ELF)
   LORBIT       =     11    0 simple, 1 ext, 2 COOP (PROOUT), +10 PAW based schemes


 Dipole corrections
   LMONO  =      F    monopole corrections only (constant potential shift)
   LDIPOL =      F    correct potential (dipole corrections)
   IDIPOL =      0    1-x, 2-y, 3-z, 4-all directions 
   EPSILON=  1.0000000 bulk dielectric constant

 Exchange correlation treatment:
   GGA     =    --    GGA type
   LEXCH   =     8    internal setting for exchange type
   VOSKOWN=      0    Vosko Wilk Nusair interpolation
   LHFCALC =     F    Hartree Fock is set to
   LHFONE  =     F    Hartree Fock one center treatment
   AEXX    =    0.0000 exact exchange contribution

 Linear response parameters
   LEPSILON=     F    determine dielectric tensor
   LRPA    =     F    only Hartree local field effects (RPA)
   LNABLA  =     F    use nabla operator in PAW spheres
   LVEL    =     F    velocity operator in full k-point grid
   LINTERFAST=   F  fast interpolation
   KINTER  =     0    interpolate to denser k-point grid
   CSHIFT  =0.1000    complex shift for real part using Kramers Kronig
   OMEGAMAX=  -1.0    maximum frequency
   DEG_THRESHOLD= 0.2000000E-02 threshold for treating states as degnerate
   RTIME   =   -0.100 relaxation time in fs
  (WPLASMAI=    0.000 imaginary part of plasma frequency in eV, 0.658/RTIME)
   DFIELD  = 0.0000000 0.0000000 0.0000000 field for delta impulse in time
 
 Orbital magnetization related:
   ORBITALMAG=     F  switch on orbital magnetization
   LCHIMAG   =     F  perturbation theory with respect to B field
   DQ        =  0.001000  dq finite difference perturbation B field
   LLRAUG    =     F  two centre corrections for induced B field



--------------------------------------------------------------------------------------------------------


 Static calculation
 charge density and potential will be updated during run
 non-spin polarized calculation
 Variant of blocked Davidson
 Davidson routine will perform the subspace rotation
 perform sub-space diagonalisation
    after iterative eigenvector-optimisation
 modified Broyden-mixing scheme, WC =      100.0
 initial mixing is a Kerker type mixing with AMIX =  0.4000 and BMIX =      1.0000
 Hartree-type preconditioning will be used
 using additional bands          576
 reciprocal scheme for non local part
 use partial core corrections
 calculate Harris-corrections to forces 
   (improved forces if not selfconsistent)
 use gradient corrections 
 use of overlap-Matrix (Vanderbilt PP)
 Gauss-broadening in eV      SIGMA  =   0.01


--------------------------------------------------------------------------------------------------------


  energy-cutoff  :      300.00
  volume of cell :      388.50
      direct lattice vectors                 reciprocal lattice vectors
     5.782400000  0.000000000  0.000000000     0.172938572  0.000000000  0.000000000
     0.000000000  5.782400000  0.000000000     0.000000000  0.172938572  0.000000000
     0.000000000  0.000000000 11.619200000     0.000000000  0.000000000  0.086064445

  length of vectors
     5.782400000  5.782400000 11.619200000     0.172938572  0.172938572  0.086064445


 
 k-points in units of 2pi/SCALE and weight: KPOINTS                                 
   0.00000000  0.00000000  0.00000000       0.002
   0.01729386  0.00000000  0.00000000       0.008
   0.03458771  0.00000000  0.00000000       0.008
   0.05188157  0.00000000  0.00000000       0.008
   0.06917543  0.00000000  0.00000000       0.008
   0.08646929  0.00000000  0.00000000       0.004
   0.01729386  0.01729386  0.00000000       0.008
   0.03458771  0.01729386  0.00000000       0.016
   0.05188157  0.01729386  0.00000000       0.016
   0.06917543  0.01729386  0.00000000       0.016
   0.08646929  0.01729386  0.00000000       0.008
   0.03458771  0.03458771  0.00000000       0.008
   0.05188157  0.03458771  0.00000000       0.016
   0.06917543  0.03458771  0.00000000       0.016
   0.08646929  0.03458771  0.00000000       0.008
   0.05188157  0.05188157  0.00000000       0.008
   0.06917543  0.05188157  0.00000000       0.016
   0.08646929  0.05188157  0.00000000       0.008
   0.06917543  0.06917543  0.00000000       0.008
   0.08646929  0.06917543  0.00000000       0.008
   0.08646929  0.08646929  0.00000000       0.002
   0.00000000  0.00000000  0.01721289       0.004
   0.01729386  0.00000000  0.01721289       0.016
   0.03458771  0.00000000  0.01721289       0.016
   0.05188157  0.00000000  0.01721289       0.016
   0.06917543  0.00000000  0.01721289       0.016
   0.08646929  0.00000000  0.01721289       0.008
   0.01729386  0.01729386  0.01721289       0.016
   0.03458771  0.01729386  0.01721289       0.032
   0.05188157  0.01729386  0.01721289       0.032
   0.06917543  0.01729386  0.01721289       0.032
   0.08646929  0.01729386  0.01721289       0.016
   0.03458771  0.03458771  0.01721289       0.016
   0.05188157  0.03458771  0.01721289       0.032
   0.06917543  0.03458771  0.01721289       0.032
   0.08646929  0.03458771  0.01721289       0.016
   0.05188157  0.05188157  0.01721289       0.016
   0.06917543  0.05188157  0.01721289       0.032
   0.08646929  0.05188157  0.01721289       0.016
   0.06917543  0.06917543  0.01721289       0.016
   0.08646929  0.06917543  0.01721289       0.016
   0.08646929  0.08646929  0.01721289       0.004
   0.00000000  0.00000000  0.03442578       0.004
   0.01729386  0.00000000  0.03442578       0.016
   0.03458771  0.00000000  0.03442578       0.016
   0.05188157  0.00000000  0.03442578       0.016
   0.06917543  0.00000000  0.03442578       0.016
   0.08646929  0.00000000  0.03442578       0.008
   0.01729386  0.01729386  0.03442578       0.016
   0.03458771  0.01729386  0.03442578       0.032
   0.05188157  0.01729386  0.03442578       0.032
   0.06917543  0.01729386  0.03442578       0.032
   0.08646929  0.01729386  0.03442578       0.016
   0.03458771  0.03458771  0.03442578       0.016
   0.05188157  0.03458771  0.03442578       0.032
   0.06917543  0.03458771  0.03442578       0.032
   0.08646929  0.03458771  0.03442578       0.016
   0.05188157  0.05188157  0.03442578       0.016
   0.06917543  0.05188157  0.03442578       0.032
   0.08646929  0.05188157  0.03442578       0.016
   0.06917543  0.06917543  0.03442578       0.016
   0.08646929  0.06917543  0.03442578       0.016
   0.08646929  0.08646929  0.03442578       0.004
 
 k-points in reciprocal lattice and weights: KPOINTS                                 
   0.00000000  0.00000000  0.00000000       0.002
   0.10000000  0.00000000  0.00000000       0.008
   0.20000000  0.00000000  0.00000000       0.008
   0.30000000  0.00000000  0.00000000       0.008
   0.40000000  0.00000000  0.00000000       0.008
   0.50000000  0.00000000  0.00000000       0.004
   0.10000000  0.10000000  0.00000000       0.008
   0.20000000  0.10000000  0.00000000       0.016
   0.30000000  0.10000000  0.00000000       0.016
   0.40000000  0.10000000  0.00000000       0.016
   0.50000000  0.10000000  0.00000000       0.008
   0.20000000  0.20000000  0.00000000       0.008
   0.30000000  0.20000000  0.00000000       0.016
   0.40000000  0.20000000  0.00000000       0.016
   0.50000000  0.20000000  0.00000000       0.008
   0.30000000  0.30000000  0.00000000       0.008
   0.40000000  0.30000000  0.00000000       0.016
   0.50000000  0.30000000  0.00000000       0.008
   0.40000000  0.40000000  0.00000000       0.008
   0.50000000  0.40000000  0.00000000       0.008
   0.50000000  0.50000000  0.00000000       0.002
   0.00000000  0.00000000  0.20000000       0.004
   0.10000000  0.00000000  0.20000000       0.016
   0.20000000  0.00000000  0.20000000       0.016
   0.30000000  0.00000000  0.20000000       0.016
   0.40000000  0.00000000  0.20000000       0.016
   0.50000000  0.00000000  0.20000000       0.008
   0.10000000  0.10000000  0.20000000       0.016
   0.20000000  0.10000000  0.20000000       0.032
   0.30000000  0.10000000  0.20000000       0.032
   0.40000000  0.10000000  0.20000000       0.032
   0.50000000  0.10000000  0.20000000       0.016
   0.20000000  0.20000000  0.20000000       0.016
   0.30000000  0.20000000  0.20000000       0.032
   0.40000000  0.20000000  0.20000000       0.032
   0.50000000  0.20000000  0.20000000       0.016
   0.30000000  0.30000000  0.20000000       0.016
   0.40000000  0.30000000  0.20000000       0.032
   0.50000000  0.30000000  0.20000000       0.016
   0.40000000  0.40000000  0.20000000       0.016
   0.50000000  0.40000000  0.20000000       0.016
   0.50000000  0.50000000  0.20000000       0.004
   0.00000000  0.00000000  0.40000000       0.004
   0.10000000  0.00000000  0.40000000       0.016
   0.20000000  0.00000000  0.40000000       0.016
   0.30000000  0.00000000  0.40000000       0.016
   0.40000000  0.00000000  0.40000000       0.016
   0.50000000  0.00000000  0.40000000       0.008
   0.10000000  0.10000000  0.40000000       0.016
   0.20000000  0.10000000  0.40000000       0.032
   0.30000000  0.10000000  0.40000000       0.032
   0.40000000  0.10000000  0.40000000       0.032
   0.50000000  0.10000000  0.40000000       0.016
   0.20000000  0.20000000  0.40000000       0.016
   0.30000000  0.20000000  0.40000000       0.032
   0.40000000  0.20000000  0.40000000       0.032
   0.50000000  0.20000000  0.40000000       0.016
   0.30000000  0.30000000  0.40000000       0.016
   0.40000000  0.30000000  0.40000000       0.032
   0.50000000  0.30000000  0.40000000       0.016
   0.40000000  0.40000000  0.40000000       0.016
   0.50000000  0.40000000  0.40000000       0.016
   0.50000000  0.50000000  0.40000000       0.004
 
 position of ions in fractional coordinates (direct lattice) 
   0.00000000  0.50000000  0.25000000
   0.00000000  0.00000000  0.00000000
   0.50000000  0.00000000  0.75000000
   0.50000000  0.50000000  0.50000000
   0.00000000  0.50000000  0.75000000
   0.00000000  0.00000000  0.50000000
   0.50000000  0.00000000  0.25000000
   0.50000000  0.50000000  0.00000000
   0.75000000  0.26500000  0.37500000
   0.25000000  0.76500000  0.87500000
   0.25000000  0.73500000  0.37500000
   0.75000000  0.23500000  0.87500000
   0.23500000  0.25000000  0.12500000
   0.76500000  0.75000000  0.12500000
   0.73500000  0.75000000  0.62500000
   0.26500000  0.25000000  0.62500000
 
 position of ions in cartesian coordinates  (Angst):
   0.00000000  2.89120000  2.90480000
   0.00000000  0.00000000  0.00000000
   2.89120000  0.00000000  8.71440000
   2.89120000  2.89120000  5.80960000
   0.00000000  2.89120000  8.71440000
   0.00000000  0.00000000  5.80960000
   2.89120000  0.00000000  2.90480000
   2.89120000  2.89120000  0.00000000
   4.33680000  1.53233600  4.35720000
   1.44560000  4.42353600 10.16680000
   1.44560000  4.25006400  4.35720000
   4.33680000  1.35886400 10.16680000
   1.35886400  1.44560000  1.45240000
   4.42353600  4.33680000  1.45240000
   4.25006400  4.33680000  7.26200000
   1.53233600  1.44560000  7.26200000
 


--------------------------------------------------------------------------------------------------------


 k-point   1 :   0.0000 0.0000 0.0000  plane waves:    4581
 k-point   2 :   0.1000 0.0000 0.0000  plane waves:    4599
 k-point   3 :   0.2000 0.0000 0.0000  plane waves:    4576
 k-point   4 :   0.3000 0.0000 0.0000  plane waves:    4594
 k-point   5 :   0.4000 0.0000 0.0000  plane waves:    4578
 k-point   6 :   0.5000 0.0000 0.0000  plane waves:    4576
 k-point   7 :   0.1000 0.1000 0.0000  plane waves:    4589
 k-point   8 :   0.2000 0.1000 0.0000  plane waves:    4571
 k-point   9 :   0.3000 0.1000 0.0000  plane waves:    4581
 k-point  10 :   0.4000 0.1000 0.0000  plane waves:    4589
 k-point  11 :   0.5000 0.1000 0.0000  plane waves:    4594
 k-point  12 :   0.2000 0.2000 0.0000  plane waves:    4593
 k-point  13 :   0.3000 0.2000 0.0000  plane waves:    4584
 k-point  14 :   0.4000 0.2000 0.0000  plane waves:    4585
 k-point  15 :   0.5000 0.2000 0.0000  plane waves:    4594
 k-point  16 :   0.3000 0.3000 0.0000  plane waves:    4578
 k-point  17 :   0.4000 0.3000 0.0000  plane waves:    4599
 k-point  18 :   0.5000 0.3000 0.0000  plane waves:    4594
 k-point  19 :   0.4000 0.4000 0.0000  plane waves:    4584
 k-point  20 :   0.5000 0.4000 0.0000  plane waves:    4584
 k-point  21 :   0.5000 0.5000 0.0000  plane waves:    4608
 k-point  22 :   0.0000 0.0000 0.2000  plane waves:    4589
 k-point  23 :   0.1000 0.0000 0.2000  plane waves:    4587
 k-point  24 :   0.2000 0.0000 0.2000  plane waves:    4588
 k-point  25 :   0.3000 0.0000 0.2000  plane waves:    4589
 k-point  26 :   0.4000 0.0000 0.2000  plane waves:    4578
 k-point  27 :   0.5000 0.0000 0.2000  plane waves:    4580
 k-point  28 :   0.1000 0.1000 0.2000  plane waves:    4573
 k-point  29 :   0.2000 0.1000 0.2000  plane waves:    4583
 k-point  30 :   0.3000 0.1000 0.2000  plane waves:    4587
 k-point  31 :   0.4000 0.1000 0.2000  plane waves:    4575
 k-point  32 :   0.5000 0.1000 0.2000  plane waves:    4582
 k-point  33 :   0.2000 0.2000 0.2000  plane waves:    4589
 k-point  34 :   0.3000 0.2000 0.2000  plane waves:    4580
 k-point  35 :   0.4000 0.2000 0.2000  plane waves:    4579
 k-point  36 :   0.5000 0.2000 0.2000  plane waves:    4582
 k-point  37 :   0.3000 0.3000 0.2000  plane waves:    4587
 k-point  38 :   0.4000 0.3000 0.2000  plane waves:    4597
 k-point  39 :   0.5000 0.3000 0.2000  plane waves:    4598
 k-point  40 :   0.4000 0.4000 0.2000  plane waves:    4598
 k-point  41 :   0.5000 0.4000 0.2000  plane waves:    4604
 k-point  42 :   0.5000 0.5000 0.2000  plane waves:    4580
 k-point  43 :   0.0000 0.0000 0.4000  plane waves:    4589
 k-point  44 :   0.1000 0.0000 0.4000  plane waves:    4576
 k-point  45 :   0.2000 0.0000 0.4000  plane waves:    4588
 k-point  46 :   0.3000 0.0000 0.4000  plane waves:    4573
 k-point  47 :   0.4000 0.0000 0.4000  plane waves:    4576
 k-point  48 :   0.5000 0.0000 0.4000  plane waves:    4578
 k-point  49 :   0.1000 0.1000 0.4000  plane waves:    4585
 k-point  50 :   0.2000 0.1000 0.4000  plane waves:    4586
 k-point  51 :   0.3000 0.1000 0.4000  plane waves:    4574
 k-point  52 :   0.4000 0.1000 0.4000  plane waves:    4573
 k-point  53 :   0.5000 0.1000 0.4000  plane waves:    4570
 k-point  54 :   0.2000 0.2000 0.4000  plane waves:    4569
 k-point  55 :   0.3000 0.2000 0.4000  plane waves:    4575
 k-point  56 :   0.4000 0.2000 0.4000  plane waves:    4584
 k-point  57 :   0.5000 0.2000 0.4000  plane waves:    4576
 k-point  58 :   0.3000 0.3000 0.4000  plane waves:    4579
 k-point  59 :   0.4000 0.3000 0.4000  plane waves:    4596
 k-point  60 :   0.5000 0.3000 0.4000  plane waves:    4596
 k-point  61 :   0.4000 0.4000 0.4000  plane waves:    4602
 k-point  62 :   0.5000 0.4000 0.4000  plane waves:    4610
 k-point  63 :   0.5000 0.5000 0.4000  plane waves:    4608

 maximum and minimum number of plane-waves per node :      4610     4569

 maximum number of plane-waves:      4610
 maximum index in each direction: 
   IXMAX=    8   IYMAX=    8   IZMAX=   16
   IXMIN=   -8   IYMIN=   -8   IZMIN=  -16


 serial   3D FFT for wavefunctions
 parallel 3D FFT for charge:
    minimum data exchange during FFTs selected (reduces bandwidth)


 total amount of memory used by VASP MPI-rank0   346890. kBytes
=======================================================================

   base      :      30000. kBytes
   nonl-proj :     127085. kBytes
   fftplans  :       6288. kBytes
   grid      :       6257. kBytes
   one-center:        248. kBytes
   wavefun   :     177012. kBytes
 
     INWAV:  cpu time    0.0000: real time    0.0002
 Broyden mixing: mesh for mixing (old mesh)
   NGX = 17   NGY = 17   NGZ = 33
  (NGX  = 72   NGY  = 72   NGZ  =140)
  gives a total of   9537 points

 initial charge density was supplied:
 charge density of overlapping atoms calculated
 number of electron     144.0000000 magnetization 
 keeping initial charge density in first step


--------------------------------------------------------------------------------------------------------


 Maximum index for augmentation-charges         4638 (set IRDMAX)


--------------------------------------------------------------------------------------------------------


 First call to EWALD:  gamma=   0.243
 Maximum number of real-space cells 3x 3x 2
 Maximum number of reciprocal cells 2x 2x 4

    FEWALD:  cpu time    0.0030: real time    0.0030


--------------------------------------- Iteration      1(   1)  ---------------------------------------


    POTLOK:  cpu time    0.0181: real time    0.0221
    SETDIJ:  cpu time    0.0278: real time    0.0278
     EDDAV:  cpu time   13.7786: real time   13.8160
       DOS:  cpu time    0.0067: real time    0.0068
    --------------------------------------------
      LOOP:  cpu time   13.8311: real time   13.8727

 eigenvalue-minimisations  : 90846
 total energy-change (2. order) : 0.7900315E+03  (-0.1548586E+04)
 number of electron     144.0000000 magnetization 
 augmentation part      144.0000000 magnetization 

 Free energy of the ion-electron system (eV)
  ---------------------------------------------------
  alpha Z        PSCENC =       448.81149666
  Ewald energy   TEWEN  =     -9390.25499164
  -Hartree energ DENC   =     -4516.24421630
  -exchange      EXHF   =         0.00000000
  -V(xc)+E(xc)   XCENC  =       336.20232366
  PAW double counting   =     10045.22209858   -10473.25581265
  entropy T*S    EENTRO =        -0.00056184
  eigenvalues    EBANDS =       412.73398627
  atomic energy  EATOM  =     13926.81715640
  Solvation  Ediel_sol  =         0.00000000
  ---------------------------------------------------
  free energy    TOTEN  =       790.03147916 eV

  energy without entropy =      790.03204099  energy(sigma->0) =      790.03176007


--------------------------------------------------------------------------------------------------------




--------------------------------------- Iteration      1(   2)  ---------------------------------------


     EDDAV:  cpu time   13.3848: real time   13.4436
       DOS:  cpu time    0.0065: real time    0.0066
    --------------------------------------------
      LOOP:  cpu time   13.3913: real time   13.4502

 eigenvalue-minimisations  : 88578
 total energy-change (2. order) :-0.7740395E+03  (-0.6979711E+03)
 number of electron     144.0000000 magnetization 
 augmentation part      144.0000000 magnetization 

 Free energy of the ion-electron system (eV)
  ---------------------------------------------------
  alpha Z        PSCENC =       448.81149666
  Ewald energy   TEWEN  =     -9390.25499164
  -Hartree energ DENC   =     -4516.24421630
  -exchange      EXHF   =         0.00000000
  -V(xc)+E(xc)   XCENC  =       336.20232366
  PAW double counting   =     10045.22209858   -10473.25581265
  entropy T*S    EENTRO =        -0.00000051
  eigenvalues    EBANDS =      -361.30606426
  atomic energy  EATOM  =     13926.81715640
  Solvation  Ediel_sol  =         0.00000000
  ---------------------------------------------------
  free energy    TOTEN  =        15.99198995 eV

  energy without entropy =       15.99199046  energy(sigma->0) =       15.99199021


--------------------------------------------------------------------------------------------------------




--------------------------------------- Iteration      1(   3)  ---------------------------------------


     EDDAV:  cpu time   15.0622: real time   15.0996
       DOS:  cpu time    0.0062: real time    0.0063
    --------------------------------------------
      LOOP:  cpu time   15.0684: real time   15.1059

 eigenvalue-minimisations  :103014
 total energy-change (2. order) :-0.7854136E+02  (-0.7583798E+02)
 number of electron     144.0000000 magnetization 
 augmentation part      144.0000000 magnetization 

 Free energy of the ion-electron system (eV)
  ---------------------------------------------------
  alpha Z        PSCENC =       448.81149666
  Ewald energy   TEWEN  =     -9390.25499164
  -Hartree energ DENC   =     -4516.24421630
  -exchange      EXHF   =         0.00000000
  -V(xc)+E(xc)   XCENC  =       336.20232366
  PAW double counting   =     10045.22209858   -10473.25581265
  entropy T*S    EENTRO =        -0.00000122
  eigenvalues    EBANDS =      -439.84742434
  atomic energy  EATOM  =     13926.81715640
  Solvation  Ediel_sol  =         0.00000000
  ---------------------------------------------------
  free energy    TOTEN  =       -62.54937083 eV

  energy without entropy =      -62.54936962  energy(sigma->0) =      -62.54937022


--------------------------------------------------------------------------------------------------------




--------------------------------------- Iteration      1(   4)  ---------------------------------------


     EDDAV:  cpu time   14.1005: real time   14.1074
       DOS:  cpu time    0.0066: real time    0.0067
    --------------------------------------------
      LOOP:  cpu time   14.1071: real time   14.1141

 eigenvalue-minimisations  : 94680
 total energy-change (2. order) :-0.9468769E+00  (-0.9457531E+00)
 number of electron     144.0000000 magnetization 
 augmentation part      144.0000000 magnetization 

 Free energy of the ion-electron system (eV)
  ---------------------------------------------------
  alpha Z        PSCENC =       448.81149666
  Ewald energy   TEWEN  =     -9390.25499164
  -Hartree energ DENC   =     -4516.24421630
  -exchange      EXHF   =         0.00000000
  -V(xc)+E(xc)   XCENC  =       336.20232366
  PAW double counting   =     10045.22209858   -10473.25581265
  entropy T*S    EENTRO =        -0.00000110
  eigenvalues    EBANDS =      -440.79430133
  atomic energy  EATOM  =     13926.81715640
  Solvation  Ediel_sol  =         0.00000000
  ---------------------------------------------------
  free energy    TOTEN  =       -63.49624770 eV

  energy without entropy =      -63.49624660  energy(sigma->0) =      -63.49624715


--------------------------------------------------------------------------------------------------------




--------------------------------------- Iteration      1(   5)  ---------------------------------------


     EDDAV:  cpu time   14.3507: real time   14.3777
       DOS:  cpu time    0.0065: real time    0.0065
    CHARGE:  cpu time    0.0907: real time    0.0908
    MIXING:  cpu time    0.0020: real time    0.0021
    --------------------------------------------
      LOOP:  cpu time   14.4500: real time   14.4772

 eigenvalue-minimisations  : 97452
 total energy-change (2. order) :-0.2570751E-02  (-0.2570393E-02)
 number of electron     144.0000002 magnetization 
 augmentation part       46.4001451 magnetization 

 Broyden mixing:
  rms(total) = 0.11690E+01    rms(broyden)= 0.11689E+01
  rms(prec ) = 0.15108E+01
  weight for this iteration     100.00

 Free energy of the ion-electron system (eV)
  ---------------------------------------------------
  alpha Z        PSCENC =       448.81149666
  Ewald energy   TEWEN  =     -9390.25499164
  -Hartree energ DENC   =     -4516.24421630
  -exchange      EXHF   =         0.00000000
  -V(xc)+E(xc)   XCENC  =       336.20232366
  PAW double counting   =     10045.22209858   -10473.25581265
  entropy T*S    EENTRO =        -0.00000110
  eigenvalues    EBANDS =      -440.79687208
  atomic energy  EATOM  =     13926.81715640
  Solvation  Ediel_sol  =         0.00000000
  ---------------------------------------------------
  free energy    TOTEN  =       -63.49881845 eV

  energy without entropy =      -63.49881735  energy(sigma->0) =      -63.49881790


--------------------------------------------------------------------------------------------------------




--------------------------------------- Iteration      1(   6)  ---------------------------------------


    POTLOK:  cpu time    0.0166: real time    0.0210
    SETDIJ:  cpu time    0.0260: real time    0.0260
     EDDAV:  cpu time   17.1585: real time   17.2231
       DOS:  cpu time    0.0053: real time    0.0059
    CHARGE:  cpu time    0.0920: real time    0.0920
    MIXING:  cpu time    0.0019: real time    0.0020
    --------------------------------------------
      LOOP:  cpu time   17.3003: real time   17.3701

 eigenvalue-minimisations  :121968
 total energy-change (2. order) : 0.5725563E+00  (-0.1471105E+00)
 number of electron     144.0000003 magnetization 
 augmentation part       49.8447513 magnetization 

 Broyden mixing:
  rms(total) = 0.86735E+00    rms(broyden)= 0.86719E+00
  rms(prec ) = 0.11143E+01
  weight for this iteration     100.00

 eigenvalues of (default mixing * dielectric matrix)
  average eigenvalue GAMMA=   0.5879
  0.5879

 Free energy of the ion-electron system (eV)
  ---------------------------------------------------
  alpha Z        PSCENC =       448.81149666
  Ewald energy   TEWEN  =     -9390.25499164
  -Hartree energ DENC   =     -4413.18265126
  -exchange      EXHF   =         0.00000000
  -V(xc)+E(xc)   XCENC  =       333.01004607
  PAW double counting   =     10012.77253979   -10412.23690286
  entropy T*S    EENTRO =        -0.00000000
  eigenvalues    EBANDS =      -568.66295531
  atomic energy  EATOM  =     13926.81715640
  Solvation  Ediel_sol  =         0.00000000
  ---------------------------------------------------
  free energy    TOTEN  =       -62.92626214 eV

  energy without entropy =      -62.92626214  energy(sigma->0) =      -62.92626214


--------------------------------------------------------------------------------------------------------




--------------------------------------- Iteration      1(   7)  ---------------------------------------


    POTLOK:  cpu time    0.0196: real time    0.0201
    SETDIJ:  cpu time    0.0256: real time    0.0256
     EDDAV:  cpu time   17.2075: real time   17.2356
       DOS:  cpu time    0.0066: real time    0.0066
    CHARGE:  cpu time    0.0893: real time    0.0894
    MIXING:  cpu time    0.0017: real time    0.0017
    --------------------------------------------
      LOOP:  cpu time   17.3503: real time   17.3790

 eigenvalue-minimisations  :121482
 total energy-change (2. order) : 0.2571160E+01  (-0.6315212E-01)
 number of electron     144.0000002 magnetization 
 augmentation part       48.4544204 magnetization 

 Broyden mixing:
  rms(total) = 0.23528E+00    rms(broyden)= 0.23523E+00
  rms(prec ) = 0.29501E+00
  weight for this iteration     100.00

 eigenvalues of (default mixing * dielectric matrix)
  average eigenvalue GAMMA=   1.2024
  1.8343  0.5704

 Free energy of the ion-electron system (eV)
  ---------------------------------------------------
  alpha Z        PSCENC =       448.81149666
  Ewald energy   TEWEN  =     -9390.25499164
  -Hartree energ DENC   =     -4456.64357140
  -exchange      EXHF   =         0.00000000
  -V(xc)+E(xc)   XCENC  =       335.13322821
  PAW double counting   =     10146.25280974   -10570.09748556
  entropy T*S    EENTRO =        -0.00000187
  eigenvalues    EBANDS =      -500.37374233
  atomic energy  EATOM  =     13926.81715640
  Solvation  Ediel_sol  =         0.00000000
  ---------------------------------------------------
  free energy    TOTEN  =       -60.35510179 eV

  energy without entropy =      -60.35509992  energy(sigma->0) =      -60.35510085


--------------------------------------------------------------------------------------------------------




--------------------------------------- Iteration      1(   8)  ---------------------------------------


    POTLOK:  cpu time    0.0165: real time    0.0210
    SETDIJ:  cpu time    0.0254: real time    0.0254
     EDDAV:  cpu time   17.9012: real time   17.9275
       DOS:  cpu time    0.0066: real time    0.0067
    CHARGE:  cpu time    0.0861: real time    0.0861
    MIXING:  cpu time    0.0017: real time    0.0017
    --------------------------------------------
      LOOP:  cpu time   18.0375: real time   18.0683

 eigenvalue-minimisations  :127926
 total energy-change (2. order) : 0.4072838E-01  (-0.9203949E-02)
 number of electron     144.0000002 magnetization 
 augmentation part       48.1850605 magnetization 

 Broyden mixing:
  rms(total) = 0.17308E+00    rms(broyden)= 0.17306E+00
  rms(prec ) = 0.21447E+00
  weight for this iteration     100.00

 eigenvalues of (default mixing * dielectric matrix)
  average eigenvalue GAMMA=   1.4118
  0.6138  1.2695  2.3523

 Free energy of the ion-electron system (eV)
  ---------------------------------------------------
  alpha Z        PSCENC =       448.81149666
  Ewald energy   TEWEN  =     -9390.25499164
  -Hartree energ DENC   =     -4459.22895372
  -exchange      EXHF   =         0.00000000
  -V(xc)+E(xc)   XCENC  =       335.84170271
  PAW double counting   =     10282.66718999   -10716.31327016
  entropy T*S    EENTRO =        -0.00000025
  eigenvalues    EBANDS =      -488.65470341
  atomic energy  EATOM  =     13926.81715640
  Solvation  Ediel_sol  =         0.00000000
  ---------------------------------------------------
  free energy    TOTEN  =       -60.31437341 eV

  energy without entropy =      -60.31437315  energy(sigma->0) =      -60.31437328


--------------------------------------------------------------------------------------------------------




--------------------------------------- Iteration      1(   9)  ---------------------------------------


    POTLOK:  cpu time    0.0168: real time    0.0204
    SETDIJ:  cpu time    0.0211: real time    0.0211
     EDDAV:  cpu time   15.8247: real time   15.8545
       DOS:  cpu time    0.0066: real time    0.0066
    CHARGE:  cpu time    0.0845: real time    0.0846
    MIXING:  cpu time    0.0028: real time    0.0028
    --------------------------------------------
      LOOP:  cpu time   15.9565: real time   15.9900

 eigenvalue-minimisations  :109548
 total energy-change (2. order) : 0.3451162E-02  (-0.6868094E-02)
 number of electron     144.0000002 magnetization 
 augmentation part       48.6211996 magnetization 

 Broyden mixing:
  rms(total) = 0.11666E+00    rms(broyden)= 0.11665E+00
  rms(prec ) = 0.15033E+00
  weight for this iteration     100.00

 eigenvalues of (default mixing * dielectric matrix)
  average eigenvalue GAMMA=   1.3791
  2.5517  0.6482  0.9165  1.4002

 Free energy of the ion-electron system (eV)
  ---------------------------------------------------
  alpha Z        PSCENC =       448.81149666
  Ewald energy   TEWEN  =     -9390.25499164
  -Hartree energ DENC   =     -4446.97981778
  -exchange      EXHF   =         0.00000000
  -V(xc)+E(xc)   XCENC  =       335.49797104
  PAW double counting   =     10319.71983991   -10752.51590612
  entropy T*S    EENTRO =        -0.00000822
  eigenvalues    EBANDS =      -501.40666250
  atomic energy  EATOM  =     13926.81715640
  Solvation  Ediel_sol  =         0.00000000
  ---------------------------------------------------
  free energy    TOTEN  =       -60.31092225 eV

  energy without entropy =      -60.31091403  energy(sigma->0) =      -60.31091814


--------------------------------------------------------------------------------------------------------




--------------------------------------- Iteration      1(  10)  ---------------------------------------


    POTLOK:  cpu time    0.0165: real time    0.0214
    SETDIJ:  cpu time    0.0237: real time    0.0236
     EDDAV:  cpu time   14.0832: real time   14.1137
       DOS:  cpu time    0.0065: real time    0.0066
    CHARGE:  cpu time    0.0858: real time    0.0858
    MIXING:  cpu time    0.0017: real time    0.0017
    --------------------------------------------
      LOOP:  cpu time   14.2174: real time   14.2528

 eigenvalue-minimisations  : 94536
 total energy-change (2. order) : 0.3212944E-01  (-0.1633249E-02)
 number of electron     144.0000002 magnetization 
 augmentation part       48.3821884 magnetization 

 Broyden mixing:
  rms(total) = 0.18465E-01    rms(broyden)= 0.18442E-01
  rms(prec ) = 0.22919E-01
  weight for this iteration     100.00

 eigenvalues of (default mixing * dielectric matrix)
  average eigenvalue GAMMA=   1.4651
  2.6473  1.9708  1.2560  0.6733  0.7780

 Free energy of the ion-electron system (eV)
  ---------------------------------------------------
  alpha Z        PSCENC =       448.81149666
  Ewald energy   TEWEN  =     -9390.25499164
  -Hartree energ DENC   =     -4452.96323489
  -exchange      EXHF   =         0.00000000
  -V(xc)+E(xc)   XCENC  =       335.78705438
  PAW double counting   =     10340.30598175   -10776.21669926
  entropy T*S    EENTRO =        -0.00000037
  eigenvalues    EBANDS =      -492.56555586
  atomic energy  EATOM  =     13926.81715640
  Solvation  Ediel_sol  =         0.00000000
  ---------------------------------------------------
  free energy    TOTEN  =       -60.27879281 eV

  energy without entropy =      -60.27879244  energy(sigma->0) =      -60.27879263


--------------------------------------------------------------------------------------------------------




--------------------------------------- Iteration      1(  11)  ---------------------------------------


    POTLOK:  cpu time    0.0168: real time    0.0208
    SETDIJ:  cpu time    0.0216: real time    0.0216
     EDDAV:  cpu time   14.0069: real time   14.0970
       DOS:  cpu time    0.0063: real time    0.0064
    CHARGE:  cpu time    0.0861: real time    0.0862
    MIXING:  cpu time    0.0017: real time    0.0017
    --------------------------------------------
      LOOP:  cpu time   14.1394: real time   14.2337

 eigenvalue-minimisations  : 93942
 total energy-change (2. order) :-0.4945714E-03  (-0.6278254E-03)
 number of electron     144.0000002 magnetization 
 augmentation part       48.4210039 magnetization 

 Broyden mixing:
  rms(total) = 0.57420E-02    rms(broyden)= 0.57409E-02
  rms(prec ) = 0.71226E-02
  weight for this iteration     100.00

 eigenvalues of (default mixing * dielectric matrix)
  average eigenvalue GAMMA=   1.5368
  2.5992  2.5992  0.6758  0.7762  1.3776  1.1928

 Free energy of the ion-electron system (eV)
  ---------------------------------------------------
  alpha Z        PSCENC =       448.81149666
  Ewald energy   TEWEN  =     -9390.25499164
  -Hartree energ DENC   =     -4452.14529110
  -exchange      EXHF   =         0.00000000
  -V(xc)+E(xc)   XCENC  =       335.75068284
  PAW double counting   =     10337.14447877   -10772.56982382
  entropy T*S    EENTRO =        -0.00000043
  eigenvalues    EBANDS =      -493.83299506
  atomic energy  EATOM  =     13926.81715640
  Solvation  Ediel_sol  =         0.00000000
  ---------------------------------------------------
  free energy    TOTEN  =       -60.27928738 eV

  energy without entropy =      -60.27928695  energy(sigma->0) =      -60.27928716


--------------------------------------------------------------------------------------------------------




--------------------------------------- Iteration      1(  12)  ---------------------------------------


    POTLOK:  cpu time    0.0166: real time    0.0209
    SETDIJ:  cpu time    0.0216: real time    0.0216
     EDDAV:  cpu time   14.0035: real time   14.0381
       DOS:  cpu time    0.0065: real time    0.0065
    CHARGE:  cpu time    0.0882: real time    0.0882
    MIXING:  cpu time    0.0033: real time    0.0033
    --------------------------------------------
      LOOP:  cpu time   14.1395: real time   14.1786

 eigenvalue-minimisations  : 93726
 total energy-change (2. order) :-0.2091635E-03  (-0.1112583E-03)
 number of electron     144.0000002 magnetization 
 augmentation part       48.4041610 magnetization 

 Broyden mixing:
  rms(total) = 0.53429E-02    rms(broyden)= 0.53419E-02
  rms(prec ) = 0.66654E-02
  weight for this iteration     100.00

 eigenvalues of (default mixing * dielectric matrix)
  average eigenvalue GAMMA=   1.5408
  3.0027  2.6018  0.6794  0.7707  0.9223  1.5013  1.3075

 Free energy of the ion-electron system (eV)
  ---------------------------------------------------
  alpha Z        PSCENC =       448.81149666
  Ewald energy   TEWEN  =     -9390.25499164
  -Hartree energ DENC   =     -4452.86437488
  -exchange      EXHF   =         0.00000000
  -V(xc)+E(xc)   XCENC  =       335.77840610
  PAW double counting   =     10336.00260385   -10771.55338960
  entropy T*S    EENTRO =        -0.00000042
  eigenvalues    EBANDS =      -493.01640302
  atomic energy  EATOM  =     13926.81715640
  Solvation  Ediel_sol  =         0.00000000
  ---------------------------------------------------
  free energy    TOTEN  =       -60.27949654 eV

  energy without entropy =      -60.27949612  energy(sigma->0) =      -60.27949633


--------------------------------------------------------------------------------------------------------




--------------------------------------- Iteration      1(  13)  ---------------------------------------


    POTLOK:  cpu time    0.0165: real time    0.0210
    SETDIJ:  cpu time    0.0242: real time    0.0243
     EDDAV:  cpu time   13.8439: real time   13.8832
       DOS:  cpu time    0.0065: real time    0.0065
    CHARGE:  cpu time    0.0858: real time    0.0859
    MIXING:  cpu time    0.0018: real time    0.0019
    --------------------------------------------
      LOOP:  cpu time   13.9788: real time   14.0227

 eigenvalue-minimisations  : 91854
 total energy-change (2. order) : 0.2340148E-04  (-0.1728282E-04)
 number of electron     144.0000002 magnetization 
 augmentation part       48.4182067 magnetization 

 Broyden mixing:
  rms(total) = 0.26725E-02    rms(broyden)= 0.26715E-02
  rms(prec ) = 0.34814E-02
  weight for this iteration     100.00

 eigenvalues of (default mixing * dielectric matrix)
  average eigenvalue GAMMA=   1.5624
  3.1861  2.4719  1.8496  1.3669  1.2200  0.6842  0.7472  0.9735

 Free energy of the ion-electron system (eV)
  ---------------------------------------------------
  alpha Z        PSCENC =       448.81149666
  Ewald energy   TEWEN  =     -9390.25499164
  -Hartree energ DENC   =     -4452.63201466
  -exchange      EXHF   =         0.00000000
  -V(xc)+E(xc)   XCENC  =       335.76750769
  PAW double counting   =     10335.11453015   -10770.50055916
  entropy T*S    EENTRO =        -0.00000044
  eigenvalues    EBANDS =      -493.40259814
  atomic energy  EATOM  =     13926.81715640
  Solvation  Ediel_sol  =         0.00000000
  ---------------------------------------------------
  free energy    TOTEN  =       -60.27947314 eV

  energy without entropy =      -60.27947270  energy(sigma->0) =      -60.27947292


--------------------------------------------------------------------------------------------------------




--------------------------------------- Iteration      1(  14)  ---------------------------------------


    POTLOK:  cpu time    0.0166: real time    0.0203
    SETDIJ:  cpu time    0.0217: real time    0.0217
     EDDAV:  cpu time   13.6912: real time   13.7197
       DOS:  cpu time    0.0064: real time    0.0065
    CHARGE:  cpu time    0.0894: real time    0.0895
    MIXING:  cpu time    0.0018: real time    0.0019
    --------------------------------------------
      LOOP:  cpu time   13.8272: real time   13.8595

 eigenvalue-minimisations  : 91026
 total energy-change (2. order) : 0.1140154E-04  (-0.4277135E-05)
 number of electron     144.0000002 magnetization 
 augmentation part       48.4120304 magnetization 

 Broyden mixing:
  rms(total) = 0.72511E-03    rms(broyden)= 0.72450E-03
  rms(prec ) = 0.89084E-03
  weight for this iteration     100.00

 eigenvalues of (default mixing * dielectric matrix)
  average eigenvalue GAMMA=   1.6082
  3.4059  2.6034  2.3844  1.5183  1.2826  0.9754  0.6883  0.7305  0.8853

 Free energy of the ion-electron system (eV)
  ---------------------------------------------------
  alpha Z        PSCENC =       448.81149666
  Ewald energy   TEWEN  =     -9390.25499164
  -Hartree energ DENC   =     -4452.81049982
  -exchange      EXHF   =         0.00000000
  -V(xc)+E(xc)   XCENC  =       335.77522778
  PAW double counting   =     10335.42505926   -10770.87282810
  entropy T*S    EENTRO =        -0.00000043
  eigenvalues    EBANDS =      -493.17008186
  atomic energy  EATOM  =     13926.81715640
  Solvation  Ediel_sol  =         0.00000000
  ---------------------------------------------------
  free energy    TOTEN  =       -60.27946174 eV

  energy without entropy =      -60.27946131  energy(sigma->0) =      -60.27946153


--------------------------------------------------------------------------------------------------------




--------------------------------------- Iteration      1(  15)  ---------------------------------------


    POTLOK:  cpu time    0.0163: real time    0.0229
    SETDIJ:  cpu time    0.0251: real time    0.0251
     EDDAV:  cpu time   13.9141: real time   14.0038
       DOS:  cpu time    0.0063: real time    0.0064
    --------------------------------------------
      LOOP:  cpu time   13.9618: real time   14.0582

 eigenvalue-minimisations  : 93456
 total energy-change (2. order) :-0.1148865E-05  (-0.1747490E-05)
 number of electron     144.0000002 magnetization 
 augmentation part       48.4120304 magnetization 

 Free energy of the ion-electron system (eV)
  ---------------------------------------------------
  alpha Z        PSCENC =       448.81149666
  Ewald energy   TEWEN  =     -9390.25499164
  -Hartree energ DENC   =     -4452.80369968
  -exchange      EXHF   =         0.00000000
  -V(xc)+E(xc)   XCENC  =       335.77470215
  PAW double counting   =     10335.35033240   -10770.78211605
  entropy T*S    EENTRO =        -0.00000043
  eigenvalues    EBANDS =      -493.19234271
  atomic energy  EATOM  =     13926.81715640
  Solvation  Ediel_sol  =         0.00000000
  ---------------------------------------------------
  free energy    TOTEN  =       -60.27946289 eV

  energy without entropy =      -60.27946246  energy(sigma->0) =      -60.27946267


--------------------------------------------------------------------------------------------------------




 average (electrostatic) potential at core
  the test charge radii are     1.0053  1.0774  1.0808
  (the norm of the test charge is              1.0000)
       1 -38.8271       2 -38.8271       3 -38.8271       4 -38.8271       5 -97.8727
       6 -97.8727       7 -97.8727       8 -97.8727       9 -54.7547      10 -54.7547
      11 -54.7547      12 -54.7547      13 -54.7547      14 -54.7547      15 -54.7547
      16 -54.7547
 
 
 
 E-fermi :   3.8926     XC(G=0):  -9.3521     alpha+bet : -9.0850


 k-point     1 :       0.0000    0.0000    0.0000
  band No.  band energies     occupation 
      1     -11.4080      2.00000
      2     -11.4080      2.00000
      3     -11.4001      2.00000
      4     -11.3975      2.00000
      5     -11.3975      2.00000
      6     -11.2954      2.00000
      7     -11.2954      2.00000
      8     -11.1108      2.00000
      9     -11.0874      2.00000
     10     -11.0874      2.00000
     11     -11.0675      2.00000
     12     -11.0675      2.00000
     13     -11.0155      2.00000
     14     -11.0155      2.00000
     15     -11.0086      2.00000
     16     -11.0035      2.00000
     17     -10.9906      2.00000
     18     -10.9753      2.00000
     19     -10.9753      2.00000
     20     -10.9744      2.00000
     21     -10.2212      2.00000
     22      -9.5042      2.00000
     23      -9.5042      2.00000
     24      -8.7200      2.00000
     25      -8.7200      2.00000
     26      -8.7101      2.00000
     27      -8.6907      2.00000
     28      -8.6907      2.00000
     29      -2.9033      2.00000
     30      -2.4211      2.00000
     31      -2.4211      2.00000
     32      -1.8872      2.00000
     33      -0.8521      2.00000
     34      -0.3383      2.00000
     35      -0.3350      2.00000
     36      -0.3350      2.00000
     37      -0.2663      2.00000
     38       0.0647      2.00000
     39       0.0647      2.00000
     40       0.3677      2.00000
     41       0.3677      2.00000
     42       0.4691      2.00000
     43       0.4691      2.00000
     44       0.5518      2.00000
     45       0.5518      2.00000
     46       0.6870      2.00000
     47       0.6870      2.00000
     48       0.8523      2.00000
     49       0.8523      2.00000
     50       0.9487      2.00000
     51       0.9487      2.00000
     52       1.0005      2.00000
     53       2.0369      2.00000
     54       2.0369      2.00000
     55       2.0514      2.00000
     56       2.0783      2.00000
     57       2.1534      2.00000
     58       2.1916      2.00000
     59       2.1916      2.00000
     60       2.4076      2.00000
     61       2.4313      2.00000
     62       2.4313      2.00000
     63       2.5259      2.00000
     64       2.7148      2.00000
     65       2.7148      2.00000
     66       2.8719      2.00000
     67       2.8719      2.00000
     68       3.1127      2.00000
     69       3.1127      2.00000
     70       3.8335      2.00000
     71       3.8695      1.99894
     72       3.8695      1.99894
     73       3.9127      0.00448
     74       5.8602      0.00000
     75       5.8602      0.00000
     76       5.8969      0.00000
     77       5.9159      0.00000
     78       5.9159      0.00000
     79       6.2963      0.00000
     80       6.6836      0.00000
     81       6.6836      0.00000
     82       7.6778      0.00000
     83       7.6778      0.00000
     84       7.9002      0.00000
     85       7.9002      0.00000
     86       8.5033      0.00000
     87       8.6667      0.00000
     88       8.6798      0.00000
     89       8.6798      0.00000
     90       8.8208      0.00000
     91       9.9780      0.00000
     92       9.9780      0.00000
     93      10.5369      0.00000
     94      10.5369      0.00000
     95      10.5446      0.00000
     96      10.6306      0.00000
     97      10.9558      0.00000
     98      10.9558      0.00000
     99      11.0501      0.00000
    100      11.0501      0.00000
    101      13.0644      0.00000
    102      13.1418      0.00000
    103      13.1418      0.00000
    104      13.1841      0.00000
    105      13.9371      0.00000
    106      13.9371      0.00000
    107      13.9738      0.00000
    108      13.9738      0.00000
    109      14.0626      0.00000
    110      14.1722      0.00000
    111      14.1722      0.00000
    112      14.1950      0.00000
    113      14.5200      0.00000
    114      14.6852      0.00000
    115      15.0192      0.00000
    116      15.0192      0.00000
    117      15.4672      0.00000
    118      15.5151      0.00000
    119      15.5151      0.00000
    120      15.7195      0.00000
    121      15.9505      0.00000
    122      15.9505      0.00000
[...]
   97.684109    0.947566    0.947566    0.947461   -0.000000   -0.000000    0.000000
   98.680886    0.948970    0.948970    0.948865   -0.000000   -0.000000    0.000000

  frequency dependent IMAGINARY DIELECTRIC FUNCTION (independent particle, no local field effects) current-current
     E(ev)      X         Y         Z        XY        YZ        ZX
  --------------------------------------------------------------------------------------------------------------
    0.000000   21.974419   21.974419   52.270951    0.000000   -0.000000    0.000000
    0.996777    3.941395    3.941395    3.731847    0.000000    0.000000   -0.000000
    1.993553    8.275600    8.275600    7.978179   -0.000000   -0.000000    0.000000
    2.990330    4.972973    4.972973    5.506447    0.000000   -0.000000    0.000000
    3.987106    7.745316    7.745316    6.999781    0.000000    0.000000    0.000000
    4.983883    7.699832    7.699832    7.251621    0.000000    0.000000    0.000000
    5.980660    9.226745    9.226745    9.964700    0.000000   -0.000000   -0.000000
    6.977436    6.002202    6.002202    5.805763   -0.000000    0.000000    0.000000
    7.974213    4.801179    4.801179    5.092347   -0.000000   -0.000000    0.000000
    8.970990    3.148584    3.148584    3.290525   -0.000000   -0.000000   -0.000000
    9.967766    1.912254    1.912254    1.996522   -0.000000    0.000000   -0.000000
   10.964543    1.264503    1.264503    1.222770   -0.000000   -0.000000   -0.000000
   11.961319    1.023531    1.023531    0.979667   -0.000000    0.000000   -0.000000
   12.958096    0.741850    0.741850    0.790458    0.000000   -0.000000   -0.000000
   13.954873    0.645074    0.645074    0.599215    0.000000   -0.000000    0.000000
   14.951649    0.685512    0.685512    0.682083    0.000000   -0.000000   -0.000000
   15.948426    0.502430    0.502430    0.520158   -0.000000   -0.000000   -0.000000
   16.945203    0.475409    0.475409    0.448389   -0.000000    0.000000   -0.000000
   17.941979    0.473742    0.473742    0.455365    0.000000   -0.000000    0.000000
   18.938756    0.367129    0.367129    0.405979   -0.000000    0.000000   -0.000000
   19.935532    0.389173    0.389173    0.376538   -0.000000   -0.000000    0.000000
   20.932309    0.346205    0.346205    0.336892    0.000000   -0.000000    0.000000
   21.929086    0.252418    0.252418    0.259523   -0.000000   -0.000000    0.000000
   22.925862    0.223182    0.223182    0.217443    0.000000    0.000000    0.000000
   23.922639    0.217845    0.217845    0.219392    0.000000   -0.000000   -0.000000
   24.919416    0.199834    0.199834    0.191876    0.000000    0.000000   -0.000000
   25.916192    0.205630    0.205630    0.204182   -0.000000    0.000000   -0.000000
   26.912969    0.221761    0.221761    0.215271   -0.000000    0.000000   -0.000000
   27.909745    0.219599    0.219599    0.217204    0.000000   -0.000000    0.000000
   28.906522    0.188673    0.188673    0.189206   -0.000000    0.000000    0.000000
   29.903299    0.171390    0.171390    0.170373   -0.000000    0.000000   -0.000000
   30.900075    0.169523    0.169523    0.175257    0.000000    0.000000    0.000000
   31.896852    0.175035    0.175035    0.175043    0.000000    0.000000   -0.000000
   32.893629    0.138946    0.138946    0.139679   -0.000000    0.000000    0.000000
   33.890405    0.132345    0.132345    0.131686   -0.000000   -0.000000   -0.000000
   34.887182    0.142696    0.142696    0.144407   -0.000000   -0.000000    0.000000
   35.883958    0.144261    0.144261    0.144833   -0.000000    0.000000    0.000000
   36.880735    0.144144    0.144144    0.137441    0.000000    0.000000   -0.000000
   37.877512    0.138608    0.138608    0.131867   -0.000000   -0.000000    0.000000
   38.874288    0.131480    0.131480    0.129220   -0.000000   -0.000000   -0.000000
   39.871065    0.145394    0.145394    0.142374    0.000000    0.000000    0.000000
   40.867842    0.137725    0.137725    0.141026    0.000000   -0.000000    0.000000
   41.864618    0.131562    0.131562    0.131094   -0.000000   -0.000000   -0.000000
   42.861395    0.137863    0.137863    0.136853    0.000000    0.000000   -0.000000
   43.858171    0.134731    0.134731    0.132475   -0.000000   -0.000000    0.000000
   44.854948    0.124451    0.124451    0.128591    0.000000   -0.000000   -0.000000
   45.851725    0.120325    0.120325    0.119771    0.000000    0.000000   -0.000000
   46.848501    0.114421    0.114421    0.115981    0.000000   -0.000000    0.000000
   47.845278    0.122064    0.122064    0.123390   -0.000000   -0.000000   -0.000000
   48.842055    0.106460    0.106460    0.107373   -0.000000    0.000000    0.000000
   49.838831    0.102720    0.102720    0.107168   -0.000000   -0.000000   -0.000000
   50.835608    0.097251    0.097251    0.101552   -0.000000    0.000000   -0.000000
   51.832384    0.092334    0.092334    0.092996   -0.000000    0.000000    0.000000
   52.829161    0.083324    0.083324    0.083484   -0.000000   -0.000000   -0.000000
   53.825938    0.083084    0.083084    0.077778    0.000000    0.000000    0.000000
   54.822714    0.073838    0.073838    0.072707   -0.000000   -0.000000   -0.000000
   55.819491    0.074923    0.074923    0.076616   -0.000000   -0.000000    0.000000
   56.816267    0.071404    0.071404    0.073245   -0.000000    0.000000   -0.000000
   57.813044    0.068113    0.068113    0.064519   -0.000000   -0.000000    0.000000
   58.809821    0.063542    0.063542    0.061085    0.000000   -0.000000    0.000000
   59.806597    0.060346    0.060346    0.059533    0.000000   -0.000000   -0.000000
   60.803374    0.059878    0.059878    0.059717    0.000000   -0.000000   -0.000000
   61.800151    0.056832    0.056832    0.057683    0.000000    0.000000   -0.000000
   62.796927    0.047970    0.047970    0.049198   -0.000000    0.000000    0.000000
   63.793704    0.048283    0.048283    0.048402   -0.000000   -0.000000    0.000000
   64.790480    0.046998    0.046998    0.048243   -0.000000    0.000000    0.000000
   65.787257    0.046584    0.046584    0.046884    0.000000   -0.000000   -0.000000
   66.784034    0.046763    0.046763    0.047298   -0.000000   -0.000000    0.000000
   67.780810    0.045777    0.045777    0.045074   -0.000000    0.000000   -0.000000
   68.777587    0.039066    0.039066    0.038374    0.000000    0.000000   -0.000000
   69.774364    0.030720    0.030720    0.031440    0.000000    0.000000   -0.000000
   70.771140    0.028229    0.028229    0.030216   -0.000000    0.000000    0.000000
   71.767917    0.027379    0.027379    0.026908   -0.000000   -0.000000   -0.000000
   72.764693    0.032176    0.032176    0.032419   -0.000000    0.000000    0.000000
   73.761470    0.030504    0.030504    0.031148   -0.000000   -0.000000   -0.000000
   74.758247    0.030670    0.030670    0.030892   -0.000000   -0.000000    0.000000
   75.755023    0.033481    0.033481    0.032037    0.000000    0.000000   -0.000000
   76.751800    0.036261    0.036261    0.036110    0.000000   -0.000000   -0.000000
   77.748577    0.040494    0.040494    0.041572   -0.000000    0.000000   -0.000000
   78.745353    0.042887    0.042887    0.043203   -0.000000   -0.000000    0.000000
   79.742130    0.046647    0.046647    0.047361   -0.000000   -0.000000   -0.000000
   80.738906    0.048356    0.048356    0.049056   -0.000000   -0.000000   -0.000000
   81.735683    0.034496    0.034496    0.034494    0.000000    0.000000   -0.000000
   82.732460    0.006100    0.006100    0.006090    0.000000   -0.000000   -0.000000
   83.729236    0.000863    0.000863    0.000860    0.000000   -0.000000   -0.000000
   84.726013    0.000457    0.000457    0.000455    0.000000   -0.000000   -0.000000
   85.722790    0.000301    0.000301    0.000299    0.000000   -0.000000   -0.000000
   86.719566    0.000218    0.000218    0.000217    0.000000   -0.000000   -0.000000
   87.716343    0.000168    0.000168    0.000167    0.000000   -0.000000   -0.000000
   88.713119    0.000134    0.000134    0.000134    0.000000   -0.000000   -0.000000
   89.709896    0.000110    0.000110    0.000110    0.000000   -0.000000   -0.000000
   90.706673    0.000093    0.000093    0.000092    0.000000   -0.000000   -0.000000
   91.703449    0.000079    0.000079    0.000079    0.000000   -0.000000   -0.000000
   92.700226    0.000068    0.000068    0.000068    0.000000   -0.000000   -0.000000
   93.697003    0.000060    0.000060    0.000059    0.000000   -0.000000   -0.000000
   94.693779    0.000052    0.000052    0.000052    0.000000   -0.000000   -0.000000
   95.690556    0.000047    0.000047    0.000046    0.000000   -0.000000   -0.000000
   96.687332    0.000042    0.000042    0.000041    0.000000   -0.000000   -0.000000
   97.684109    0.000037    0.000037    0.000037    0.000000   -0.000000   -0.000000
   98.680886    0.000034    0.000034    0.000034    0.000000   -0.000000   -0.000000

  frequency dependent      REAL DIELECTRIC FUNCTION (independent particle, no local field effects) current-current
     E(ev)        X           Y           Z          XY          YZ          ZX
  --------------------------------------------------------------------------------------------------------------
    0.000000   11.688282   11.688282  -11.421024   -0.000000    0.000000   -0.000000
    0.996777    9.415258    9.415258    9.135993    0.000000   -0.000000   -0.000000
    1.993553    7.389667    7.389667    6.959829   -0.000000   -0.000000   -0.000000
    2.990330    6.368891    6.368891    7.305175   -0.000000    0.000000   -0.000000
    3.987106    6.871082    6.871082    5.540707    0.000000    0.000000    0.000000
    4.983883    3.379638    3.379638    4.202910   -0.000000   -0.000000    0.000000
    5.980660    1.177278    1.177278    0.856578   -0.000000    0.000000    0.000000
    6.977436   -1.779963   -1.779963   -1.716848   -0.000000   -0.000000    0.000000
    7.974213   -1.900716   -1.900716   -1.716890   -0.000000   -0.000000    0.000000
    8.970990   -2.222648   -2.222648   -1.960962    0.000000   -0.000000   -0.000000
    9.967766   -1.716092   -1.716092   -1.914733   -0.000000   -0.000000   -0.000000
   10.964543   -1.181895   -1.181895   -1.305068    0.000000    0.000000    0.000000
   11.961319   -0.784004   -0.784004   -0.722274    0.000000   -0.000000    0.000000
   12.958096   -0.463167   -0.463167   -0.504533    0.000000   -0.000000    0.000000
   13.954873   -0.121656   -0.121656   -0.175121    0.000000   -0.000000   -0.000000
   14.951649   -0.018859   -0.018859    0.021012   -0.000000   -0.000000    0.000000
   15.948426    0.062673    0.062673    0.047095    0.000000   -0.000000    0.000000
   16.945203    0.193055    0.193055    0.183219    0.000000   -0.000000    0.000000
   17.941979    0.254030    0.254030    0.305061    0.000000   -0.000000    0.000000
   18.938756    0.345474    0.345474    0.342258    0.000000   -0.000000    0.000000
   19.935532    0.400269    0.400269    0.366986   -0.000000   -0.000000    0.000000
   20.932309    0.402379    0.402379    0.410553   -0.000000    0.000000    0.000000
   21.929086    0.449873    0.449873    0.443722    0.000000    0.000000    0.000000
   22.925862    0.502580    0.502580    0.505668    0.000000    0.000000    0.000000
   23.922639    0.578038    0.578038    0.577000   -0.000000    0.000000    0.000000
   24.919416    0.606800    0.606800    0.605866    0.000000   -0.000000    0.000000
   25.916192    0.663202    0.663202    0.668135   -0.000000   -0.000000    0.000000
   26.912969    0.685156    0.685156    0.684183    0.000000   -0.000000   -0.000000
   27.909745    0.690076    0.690076    0.691700   -0.000000    0.000000    0.000000
   28.906522    0.692100    0.692100    0.697199    0.000000    0.000000    0.000000
   29.903299    0.718880    0.718880    0.723012   -0.000000   -0.000000    0.000000
   30.900075    0.743382    0.743382    0.740986   -0.000000   -0.000000    0.000000
   31.896852    0.747906    0.747906    0.740567   -0.000000   -0.000000    0.000000
   32.893629    0.760839    0.760839    0.759345   -0.000000   -0.000000    0.000000
   33.890405    0.787381    0.787381    0.784158   -0.000000    0.000000    0.000000
   34.887182    0.787126    0.787126    0.791016    0.000000    0.000000    0.000000
   35.883958    0.799165    0.799165    0.795475    0.000000   -0.000000    0.000000
   36.880735    0.817673    0.817673    0.811172   -0.000000   -0.000000   -0.000000
   37.877512    0.818742    0.818742    0.820196   -0.000000   -0.000000    0.000000
   38.874288    0.847503    0.847503    0.843927    0.000000   -0.000000    0.000000
   39.871065    0.838939    0.838939    0.840337   -0.000000    0.000000    0.000000
   40.867842    0.832160    0.832160    0.831747   -0.000000    0.000000    0.000000
   41.864618    0.842876    0.842876    0.844487    0.000000   -0.000000   -0.000000
   42.861395    0.838476    0.838476    0.839841   -0.000000   -0.000000    0.000000
   43.858171    0.836781    0.836781    0.839485   -0.000000   -0.000000   -0.000000
   44.854948    0.836682    0.836682    0.838087    0.000000    0.000000   -0.000000
   45.851725    0.844211    0.844211    0.841964   -0.000000    0.000000    0.000000
   46.848501    0.851666    0.851666    0.852084   -0.000000   -0.000000    0.000000
   47.845278    0.840959    0.840959    0.845463   -0.000000    0.000000    0.000000
   48.842055    0.843524    0.843524    0.846038   -0.000000   -0.000000    0.000000
   49.838831    0.850492    0.850492    0.850294   -0.000000   -0.000000   -0.000000
   50.835608    0.850980    0.850980    0.852083   -0.000000    0.000000    0.000000
   51.832384    0.850476    0.850476    0.844640    0.000000    0.000000    0.000000
   52.829161    0.851334    0.851334    0.848038    0.000000   -0.000000   -0.000000
   53.825938    0.854523    0.854523    0.854210    0.000000    0.000000   -0.000000
   54.822714    0.862920    0.862920    0.862576    0.000000   -0.000000    0.000000
   55.819491    0.867355    0.867355    0.867561    0.000000   -0.000000    0.000000
   56.816267    0.867483    0.867483    0.867022    0.000000   -0.000000    0.000000
   57.813044    0.869026    0.869026    0.867306    0.000000   -0.000000    0.000000
   58.809821    0.872985    0.872985    0.873143    0.000000   -0.000000   -0.000000
   59.806597    0.876651    0.876651    0.877869    0.000000   -0.000000    0.000000
   60.803374    0.877184    0.877184    0.878233    0.000000    0.000000   -0.000000
   61.800151    0.877413    0.877413    0.879171   -0.000000    0.000000    0.000000
   62.796927    0.881953    0.881953    0.881345    0.000000   -0.000000    0.000000
   63.793704    0.887335    0.887335    0.888647    0.000000   -0.000000    0.000000
   64.790480    0.890046    0.890046    0.891421   -0.000000   -0.000000    0.000000
   65.787257    0.891927    0.891927    0.891900    0.000000   -0.000000    0.000000
   66.784034    0.894538    0.894538    0.893159   -0.000000    0.000000    0.000000
   67.780810    0.892903    0.892903    0.890931    0.000000   -0.000000    0.000000
   68.777587    0.888985    0.888985    0.889517   -0.000000   -0.000000    0.000000
   69.774364    0.897449    0.897449    0.898523   -0.000000   -0.000000    0.000000
   70.771140    0.903151    0.903151    0.903616    0.000000    0.000000    0.000000
   71.767917    0.910111    0.910111    0.907668   -0.000000    0.000000    0.000000
   72.764693    0.913764    0.913764    0.913274    0.000000   -0.000000    0.000000
   73.761470    0.914878    0.914878    0.915010    0.000000   -0.000000   -0.000000
   74.758247    0.917478    0.917478    0.916615    0.000000   -0.000000    0.000000
   75.755023    0.920051    0.920051    0.921084    0.000000   -0.000000    0.000000
   76.751800    0.922785    0.922785    0.920871    0.000000   -0.000000    0.000000
   77.748577    0.920642    0.920642    0.920015   -0.000000   -0.000000    0.000000
   78.745353    0.916835    0.916835    0.916763    0.000000    0.000000    0.000000
   79.742130    0.913858    0.913858    0.912499    0.000000   -0.000000    0.000000
   80.738906    0.896727    0.896727    0.896821    0.000000   -0.000000   -0.000000
   81.735683    0.886843    0.886843    0.886693    0.000000   -0.000000   -0.000000
   82.732460    0.886375    0.886375    0.886651    0.000000   -0.000000    0.000000
   83.729236    0.904499    0.904499    0.904565    0.000000   -0.000000    0.000000
   84.726013    0.912821    0.912821    0.912862    0.000000   -0.000000    0.000000
   85.722790    0.918468    0.918468    0.918493    0.000000   -0.000000    0.000000
   86.719566    0.922848    0.922848    0.922862    0.000000   -0.000000    0.000000
   87.716343    0.926475    0.926475    0.926481    0.000000   -0.000000    0.000000
   88.713119    0.929596    0.929596    0.929597    0.000000   -0.000000    0.000000
   89.709896    0.932350    0.932350    0.932347    0.000000   -0.000000    0.000000
   90.706673    0.934824    0.934824    0.934818    0.000000   -0.000000    0.000000
   91.703449    0.937076    0.937076    0.937067    0.000000   -0.000000    0.000000
   92.700226    0.939145    0.939145    0.939134    0.000000   -0.000000    0.000000
   93.697003    0.941060    0.941060    0.941048    0.000000   -0.000000    0.000000
   94.693779    0.942845    0.942845    0.942832    0.000000   -0.000000    0.000000
   95.690556    0.944517    0.944517    0.944502    0.000000   -0.000000    0.000000
   96.687332    0.946088    0.946088    0.946073    0.000000   -0.000000    0.000000
   97.684109    0.947571    0.947571    0.947555    0.000000   -0.000000    0.000000
   98.680886    0.948975    0.948975    0.948958    0.000000   -0.000000    0.000000
 
 The outermost node in the dielectric function lies at epsilon=  15.7


--------------------------------------------------------------------------------------------------------


    OPTICS:  cpu time    2.2235: real time    2.3718
    4ORBIT:  cpu time    0.0000: real time    0.0000
 


 total charge     
 
# of ion       s       p       d       tot
------------------------------------------
    1        0.355   0.308   9.289   9.951
    2        0.355   0.308   9.289   9.951
    3        0.355   0.308   9.289   9.951
    4        0.355   0.308   9.289   9.951
    5        0.830   0.711   9.916  11.458
    6        0.830   0.711   9.916  11.458
    7        0.830   0.711   9.916  11.458
    8        0.830   0.711   9.916  11.458
    9        1.446   2.384   0.042   3.872
   10        1.446   2.384   0.042   3.872
   11        1.446   2.384   0.042   3.872
   12        1.446   2.384   0.042   3.872
   13        1.446   2.384   0.042   3.872
   14        1.446   2.384   0.042   3.872
   15        1.446   2.384   0.042   3.872
   16        1.446   2.384   0.042   3.872
--------------------------------------------------
tot         16.306  23.150  77.156 116.612
 

 total amount of memory used by VASP MPI-rank0   346890. kBytes
=======================================================================

   base      :      30000. kBytes
   nonl-proj :     127085. kBytes
   fftplans  :       6288. kBytes
   grid      :       6257. kBytes
   one-center:        248. kBytes
   wavefun   :     177012. kBytes
 
  
  
 General timing and accounting informations for this job:
 ========================================================
  
                  Total CPU time used (sec):      266.990
                            User time (sec):      255.742
                          System time (sec):       11.248
                         Elapsed time (sec):      268.299
  
                   Maximum memory used (kb):      779236.
                   Average memory used (kb):           0.
  
                          Minor page faults:        36725
                          Major page faults:            8
                 Voluntary context switches:         3623
