 vasp.6.1.2 22Jul20 (build Oct 22 2020 12:12:26) complex                        
  
 executed on                Eagle date 2020.10.27  20:50:05
 running on   16 total cores
 distrk:  each k-point on   16 cores,    1 groups
 distr:  one band on NCORE=   1 cores,   16 groups


--------------------------------------------------------------------------------------------------------


 INCAR:
 POTCAR:   PAW_PBE Cu 05Jan2001                   
 POTCAR:   PAW_PBE In_d 06Sep2000                 
 POTCAR:   PAW_PBE Se 06Sep2000                   
 -----------------------------------------------------------------------------
|                                                                             |
|           W    W    AA    RRRRR   N    N  II  N    N   GGGG   !!!           |
|           W    W   A  A   R    R  NN   N  II  NN   N  G    G  !!!           |
|           W    W  A    A  R    R  N N  N  II  N N  N  G       !!!           |
|           W WW W  AAAAAA  RRRRR   N  N N  II  N  N N  G  GGG   !            |
|           WW  WW  A    A  R   R   N   NN  II  N   NN  G    G                |
|           W    W  A    A  R    R  N    N  II  N    N   GGGG   !!!           |
|                                                                             |
|     For optimal performance we recommend to set                             |
|       NCORE = 4 - approx SQRT(number of cores).                             |
|     NCORE specifies how many cores store one orbital (NPAR=cpu/NCORE).      |
|     This setting can greatly improve the performance of VASP for DFT.       |
|     The default, NCORE=1 might be grossly inefficient on modern             |
|     multi-core architectures or massively parallel machines. Do your        |
|     own testing!!!!                                                         |
|     Unfortunately you need to use the default for GW and RPA                |
|     calculations (for HF NCORE is supported but not extensively tested      |
|     yet).                                                                   |
|                                                                             |
 -----------------------------------------------------------------------------

 POTCAR:   PAW_PBE Cu 05Jan2001                   
   VRHFIN =Cu: d10 p1                                                                               
   LEXCH  = PE                                                                                      
   EATOM  =  1390.9800 eV,  102.2341 Ry                                                             
                                                                                                    
   TITEL  = PAW_PBE Cu 05Jan2001                                                                    
   LULTRA =        F    use ultrasoft PP ?                                                          
   IUNSCR =        1    unscreen: 0-lin 1-nonlin 2-no                                               
   RPACOR =    2.000    partial core radius                                                         
   POMASS =   63.546; ZVAL   =   11.000    mass and valenz                                          
   RCORE  =    2.300    outmost cutoff radius                                                       
   RWIGS  =    2.480; RWIGS  =    1.312    wigner-seitz radius (au A)                               
   ENMAX  =  273.214; ENMIN  =  204.910 eV                                                          
   RCLOC  =    1.712    cutoff for local pot                                                        
   LCOR   =        T    correct aug charges                                                         
   LPAW   =        T    paw PP                                                                      
   EAUG   =  516.456                                                                                
   DEXC   =    -.008                                                                                
   RMAX   =    2.789    core radius for proj-oper                                                   
   RAUG   =    1.300    factor for augmentation sphere                                              
   RDEP   =    2.302    radius for radial grids                                                     
   QCUT   =   -4.481; QGAM   =    8.962    optimization parameters                                  
                                                                                                    
   Description                                                                                      
     l     E      TYP  RCUT    TYP  RCUT                                                            
     2   .000     23  2.300                                                                         
     2   .000     23  2.300                                                                         
     0   .000     23  2.300                                                                         
     0   .000     23  2.300                                                                         
     1  -.200     23  2.300                                                                         
     1   .000     23  2.300                                                                         
     3   .000      7   .000                                                                         
  local pseudopotential read in
  partial core-charges read in
  atomic valenz-charges read in
  non local Contribution for L=           2  read in
    real space projection operators read in
  non local Contribution for L=           2  read in
    real space projection operators read in
  non local Contribution for L=           0  read in
    real space projection operators read in
  non local Contribution for L=           0  read in
    real space projection operators read in
  non local Contribution for L=           1  read in
    real space projection operators read in
  non local Contribution for L=           1  read in
    real space projection operators read in
    PAW grid and wavefunctions read in
 
   number of l-projection  operators is LMAX  =           6
   number of lm-projection operators is LMMAX =          18
 
 POTCAR:   PAW_PBE In_d 06Sep2000                 
   VRHFIN =In: s2p1                                                                                 
   LEXCH  = PE                                                                                      
   EATOM  =  1576.8738 eV,  115.8970 Ry                                                             
                                                                                                    
   TITEL  = PAW_PBE In_d 06Sep2000                                                                  
   LULTRA =        F    use ultrasoft PP ?                                                          
   IUNSCR =        1    unscreen: 0-lin 1-nonlin 2-no                                               
   RPACOR =    2.200    partial core radius                                                         
   POMASS =  114.820; ZVAL   =   13.000    mass and valenz                                          
   RCORE  =    2.500    outmost cutoff radius                                                       
   RWIGS  =    3.170; RWIGS  =    1.677    wigner-seitz radius (au A)                               
   ENMAX  =  239.218; ENMIN  =  179.413 eV                                                          
   ICORE  =        3    local potential                                                             
   LCOR   =        T    correct aug charges                                                         
   LPAW   =        T    paw PP                                                                      
   EAUG   =  449.704                                                                                
   DEXC   =    -.003                                                                                
   RMAX   =    2.981    core radius for proj-oper                                                   
   RAUG   =    1.300    factor for augmentation sphere                                              
   RDEP   =    2.630    radius for radial grids                                                     
   QCUT   =   -4.193; QGAM   =    8.386    optimization parameters                                  
                                                                                                    
   Description                                                                                      
     l     E      TYP  RCUT    TYP  RCUT                                                            
     2   .000     23  2.500                                                                         
     2  -.100     23  2.500                                                                         
     0   .000     23  2.500                                                                         
     0   .000     23  2.500                                                                         
     1   .000     23  2.500                                                                         
     1   .000     23  2.500                                                                         
     3  -.100      7  2.500                                                                         
  local pseudopotential read in
  partial core-charges read in
  atomic valenz-charges read in
  non local Contribution for L=           2  read in
    real space projection operators read in
  non local Contribution for L=           2  read in
    real space projection operators read in
  non local Contribution for L=           0  read in
    real space projection operators read in
  non local Contribution for L=           0  read in
    real space projection operators read in
  non local Contribution for L=           1  read in
    real space projection operators read in
  non local Contribution for L=           1  read in
    real space projection operators read in
    PAW grid and wavefunctions read in
 
   number of l-projection  operators is LMAX  =           6
   number of lm-projection operators is LMMAX =          18
 
 POTCAR:   PAW_PBE Se 06Sep2000                   
   VRHFIN =Se: s2p4                                                                                 
   LEXCH  = PE                                                                                      
   EATOM  =   256.9644 eV,   18.8864 Ry                                                             
                                                                                                    
   TITEL  = PAW_PBE Se 06Sep2000                                                                    
   LULTRA =        F    use ultrasoft PP ?                                                          
   IUNSCR =        1    unscreen: 0-lin 1-nonlin 2-no                                               
   RPACOR =    1.900    partial core radius                                                         
   POMASS =   78.960; ZVAL   =    6.000    mass and valenz                                          
   RCORE  =    2.100    outmost cutoff radius                                                       
   RWIGS  =    2.200; RWIGS  =    1.164    wigner-seitz radius (au A)                               
   ENMAX  =  211.534; ENMIN  =  158.651 eV                                                          
   ICORE  =        3    local potential                                                             
   LCOR   =        T    correct aug charges                                                         
   LPAW   =        T    paw PP                                                                      
   EAUG   =  446.842                                                                                
   DEXC   =    -.031                                                                                
   RMAX   =    3.170    core radius for proj-oper                                                   
   RAUG   =    1.300    factor for augmentation sphere                                              
   RDEP   =    2.177    radius for radial grids                                                     
   QCUT   =   -3.943; QGAM   =    7.886    optimization parameters                                  
                                                                                                    
   Description                                                                                      
     l     E      TYP  RCUT    TYP  RCUT                                                            
     0   .000     23  2.100                                                                         
     0   .000     23  2.100                                                                         
     1   .000     23  2.100                                                                         
     1   .000     23  2.100                                                                         
     2   .000     23  2.100                                                                         
     3  -.100      7  2.100                                                                         
  local pseudopotential read in
  partial core-charges read in
  atomic valenz-charges read in
  non local Contribution for L=           0  read in
    real space projection operators read in
  non local Contribution for L=           0  read in
    real space projection operators read in
  non local Contribution for L=           1  read in
    real space projection operators read in
  non local Contribution for L=           1  read in
    real space projection operators read in
  non local Contribution for L=           2  read in
    real space projection operators read in
    PAW grid and wavefunctions read in
 
   number of l-projection  operators is LMAX  =           5
   number of lm-projection operators is LMMAX =          13
 
 PAW_PBE Cu 05Jan2001                   :
 energy of atom  1       EATOM=-1390.9800
 kinetic energy error for atom=    0.0323 (will be added to EATOM!!)
 PAW_PBE In_d 06Sep2000                 :
 energy of atom  2       EATOM=-1576.8738
 kinetic energy error for atom=    0.0380 (will be added to EATOM!!)
 PAW_PBE Se 06Sep2000                   :
 energy of atom  3       EATOM= -256.9644
 kinetic energy error for atom=    0.0040 (will be added to EATOM!!)
 
 
 POSCAR: Cu1-In1-Se2 'I -4 2 d'  #122
  positions in direct lattice
  No initial velocities read in
 exchange correlation table for  LEXCH =        8
   RHO(1)=    0.500       N(1)  =     2000
   RHO(2)=  100.500       N(2)  =     4000
 


--------------------------------------------------------------------------------------------------------


 ion  position               nearest neighbor table
   1  0.000  0.500  0.250-   9 2.46  11 2.46  13 2.46  14 2.46
   2  0.000  0.000  0.000-  10 2.46  12 2.46  13 2.46  14 2.46
   3  0.500  0.000  0.750-  10 2.46  12 2.46  15 2.46  16 2.46
   4  0.500  0.500  0.500-   9 2.46  11 2.46  15 2.46  16 2.46
   5  0.000  0.500  0.750-  15 2.56  16 2.56  10 2.56  12 2.56
   6  0.000  0.000  0.500-  15 2.56  16 2.56   9 2.56  11 2.56
   7  0.500  0.000  0.250-  13 2.56  14 2.56   9 2.56  11 2.56
   8  0.500  0.500  0.000-  13 2.56  14 2.56  10 2.56  12 2.56
   9  0.750  0.265  0.375-   1 2.46   4 2.46   6 2.56   7 2.56
  10  0.250  0.765  0.875-   2 2.46   3 2.46   5 2.56   8 2.56
  11  0.250  0.735  0.375-   1 2.46   4 2.46   6 2.56   7 2.56
  12  0.750  0.235  0.875-   2 2.46   3 2.46   5 2.56   8 2.56
  13  0.235  0.250  0.125-   1 2.46   2 2.46   7 2.56   8 2.56
  14  0.765  0.750  0.125-   1 2.46   2 2.46   7 2.56   8 2.56
  15  0.735  0.750  0.625-   3 2.46   4 2.46   5 2.56   6 2.56
  16  0.265  0.250  0.625-   3 2.46   4 2.46   5 2.56   6 2.56
 
  LATTYP: Found a simple tetragonal cell.
 ALAT       =     5.7824000000
 C/A-ratio  =     2.0094078583
  
  Lattice vectors:
  
 A1 = (   5.7824000000,   0.0000000000,   0.0000000000)
 A2 = (   0.0000000000,   5.7824000000,   0.0000000000)
 A3 = (   0.0000000000,   0.0000000000,  11.6192000000)


Analysis of symmetry for initial positions (statically):
=====================================================================
 Subroutine PRICEL returns following result:
 
  LATTYP: Found a body centered tetragonal cell.
 ALAT       =     5.7824000000
 C/A-ratio  =     2.0094078583
  
  Lattice vectors:
  
 A1 = (   2.8912000000,  -2.8912000000,   5.8096000000)
 A2 = (  -2.8912000000,   2.8912000000,   5.8096000000)
 A3 = (  -2.8912000000,  -2.8912000000,  -5.8096000000)
 
   2 primitive cells build up your supercell.
 

 Routine SETGRP: Setting up the symmetry group for a 
 simple tetragonal supercell.


 Subroutine GETGRP returns: Found  8 space group operations
 (whereof  4 operations were pure point group operations)
 out of a pool of 16 trial point group operations.


The static configuration has the point symmetry S_4 .
 The point group associated with its full space group is D_2d.


Analysis of symmetry for dynamics (positions and initial velocities):
=====================================================================
 Subroutine PRICEL returns following result:
 
  LATTYP: Found a body centered tetragonal cell.
 ALAT       =     5.7824000000
 C/A-ratio  =     2.0094078583
  
  Lattice vectors:
  
 A1 = (   2.8912000000,  -2.8912000000,   5.8096000000)
 A2 = (  -2.8912000000,   2.8912000000,   5.8096000000)
 A3 = (  -2.8912000000,  -2.8912000000,  -5.8096000000)
 
   2 primitive cells build up your supercell.
 

 Routine SETGRP: Setting up the symmetry group for a 
 simple tetragonal supercell.


 Subroutine GETGRP returns: Found  8 space group operations
 (whereof  4 operations were pure point group operations)
 out of a pool of 16 trial point group operations.


The dynamic configuration has the point symmetry S_4 .
 The point group associated with its full space group is D_2d.


 Subroutine INISYM returns: Found  8 space group operations
 (whereof  4 operations are pure point group operations),
 and found     2 'primitive' translations


----------------------------------------------------------------------------------------

                                     Primitive cell                                     

  volume of cell :     194.2507

  direct lattice vectors                    reciprocal lattice vectors
     2.891200000 -2.891200000  5.809600000     0.000000000 -0.172938572  0.086064445
    -2.891200000  2.891200000  5.809600000    -0.172938572 -0.000000000  0.086064445
    -2.891200000 -2.891200000 -5.809600000    -0.172938572 -0.172938572  0.000000000

  length of vectors
     7.104190808  7.104190808  7.104190808     0.193170491  0.193170491  0.244572074

  position of ions in fractional coordinates (direct lattice)
     0.750000000  0.250000000  0.500000000
     0.000000000  0.000000000  0.000000000
     0.500000000  0.500000000  0.000000000
     0.250000000  0.750000000  0.500000000
     0.110000000  0.625000000  0.985000000
     0.640000000  0.125000000  0.015000000
     0.875000000  0.890000000  0.515000000
     0.375000000  0.360000000  0.485000000

  ion indices of the primitive-cell ions
   primitive index   ion index
                 1           1
                 2           2
                 3           6
                 4           7
                 5           9
                 6          11
                 7          13
                 8          14

----------------------------------------------------------------------------------------

 
 
 KPOINTS: KPOINTS                                 

Automatic generation of k-mesh.
Space group operators:
 irot       det(A)        alpha          n_x          n_y          n_z        tau_x        tau_y        tau_z
    1     1.000000     0.000000     1.000000     0.000000     0.000000     0.000000     0.000000     0.000000
    2    -1.000000    90.000000     0.000000     0.000000    -1.000000     0.000000     0.000000     0.000000
    3     1.000000   180.000000     0.000000     0.000000     1.000000     0.000000     0.000000     0.000000
    4    -1.000000    90.000000     0.000000     0.000000     1.000000     0.000000     0.000000     0.000000
    5     1.000000   180.000000     0.000000     1.000000     0.000000     0.000000     0.500000     0.250000
    6    -1.000000   180.000000     0.707107     0.707107     0.000000     0.000000     0.500000     0.250000
    7     1.000000   180.000000     1.000000     0.000000     0.000000     0.000000     0.500000     0.250000
    8    -1.000000   180.000000     0.707107    -0.707107     0.000000     0.000000     0.500000     0.250000
 
 Subroutine IBZKPT returns following result:
 ===========================================
 
 Found     63 irreducible k-points:
 
 Following reciprocal coordinates:
            Coordinates               Weight
  0.000000  0.000000  0.000000      1.000000
  0.100000  0.000000  0.000000      4.000000
  0.200000  0.000000  0.000000      4.000000
  0.300000  0.000000  0.000000      4.000000
  0.400000  0.000000  0.000000      4.000000
  0.500000  0.000000  0.000000      2.000000
  0.100000  0.100000  0.000000      4.000000
  0.200000  0.100000  0.000000      8.000000
  0.300000  0.100000  0.000000      8.000000
  0.400000  0.100000  0.000000      8.000000
  0.500000  0.100000  0.000000      4.000000
  0.200000  0.200000  0.000000      4.000000
  0.300000  0.200000  0.000000      8.000000
  0.400000  0.200000  0.000000      8.000000
  0.500000  0.200000  0.000000      4.000000
  0.300000  0.300000  0.000000      4.000000
  0.400000  0.300000  0.000000      8.000000
  0.500000  0.300000  0.000000      4.000000
  0.400000  0.400000  0.000000      4.000000
  0.500000  0.400000  0.000000      4.000000
  0.500000  0.500000  0.000000      1.000000
  0.000000  0.000000  0.200000      2.000000
  0.100000  0.000000  0.200000      8.000000
  0.200000  0.000000  0.200000      8.000000
  0.300000  0.000000  0.200000      8.000000
  0.400000  0.000000  0.200000      8.000000
  0.500000  0.000000  0.200000      4.000000
  0.100000  0.100000  0.200000      8.000000
  0.200000  0.100000  0.200000     16.000000
  0.300000  0.100000  0.200000     16.000000
  0.400000  0.100000  0.200000     16.000000
  0.500000  0.100000  0.200000      8.000000
  0.200000  0.200000  0.200000      8.000000
  0.300000  0.200000  0.200000     16.000000
  0.400000  0.200000  0.200000     16.000000
  0.500000  0.200000  0.200000      8.000000
  0.300000  0.300000  0.200000      8.000000
  0.400000  0.300000  0.200000     16.000000
  0.500000  0.300000  0.200000      8.000000
  0.400000  0.400000  0.200000      8.000000
  0.500000  0.400000  0.200000      8.000000
  0.500000  0.500000  0.200000      2.000000
  0.000000  0.000000  0.400000      2.000000
  0.100000  0.000000  0.400000      8.000000
  0.200000  0.000000  0.400000      8.000000
  0.300000  0.000000  0.400000      8.000000
  0.400000  0.000000  0.400000      8.000000
  0.500000  0.000000  0.400000      4.000000
  0.100000  0.100000  0.400000      8.000000
  0.200000  0.100000  0.400000     16.000000
  0.300000  0.100000  0.400000     16.000000
  0.400000  0.100000  0.400000     16.000000
  0.500000  0.100000  0.400000      8.000000
  0.200000  0.200000  0.400000      8.000000
  0.300000  0.200000  0.400000     16.000000
  0.400000  0.200000  0.400000     16.000000
  0.500000  0.200000  0.400000      8.000000
  0.300000  0.300000  0.400000      8.000000
  0.400000  0.300000  0.400000     16.000000
  0.500000  0.300000  0.400000      8.000000
  0.400000  0.400000  0.400000      8.000000
  0.500000  0.400000  0.400000      8.000000
  0.500000  0.500000  0.400000      2.000000
 
 Following cartesian coordinates:
            Coordinates               Weight
  0.000000  0.000000  0.000000      1.000000
  0.017294  0.000000  0.000000      4.000000
  0.034588  0.000000  0.000000      4.000000
  0.051882  0.000000  0.000000      4.000000
  0.069175  0.000000  0.000000      4.000000
  0.086469  0.000000  0.000000      2.000000
  0.017294  0.017294  0.000000      4.000000
  0.034588  0.017294  0.000000      8.000000
  0.051882  0.017294  0.000000      8.000000
  0.069175  0.017294  0.000000      8.000000
  0.086469  0.017294  0.000000      4.000000
  0.034588  0.034588  0.000000      4.000000
  0.051882  0.034588  0.000000      8.000000
  0.069175  0.034588  0.000000      8.000000
  0.086469  0.034588  0.000000      4.000000
  0.051882  0.051882  0.000000      4.000000
  0.069175  0.051882  0.000000      8.000000
  0.086469  0.051882  0.000000      4.000000
  0.069175  0.069175  0.000000      4.000000
  0.086469  0.069175  0.000000      4.000000
  0.086469  0.086469  0.000000      1.000000
  0.000000  0.000000  0.017213      2.000000
  0.017294  0.000000  0.017213      8.000000
  0.034588  0.000000  0.017213      8.000000
  0.051882  0.000000  0.017213      8.000000
  0.069175  0.000000  0.017213      8.000000
  0.086469  0.000000  0.017213      4.000000
  0.017294  0.017294  0.017213      8.000000
  0.034588  0.017294  0.017213     16.000000
  0.051882  0.017294  0.017213     16.000000
  0.069175  0.017294  0.017213     16.000000
  0.086469  0.017294  0.017213      8.000000
  0.034588  0.034588  0.017213      8.000000
  0.051882  0.034588  0.017213     16.000000
  0.069175  0.034588  0.017213     16.000000
  0.086469  0.034588  0.017213      8.000000
  0.051882  0.051882  0.017213      8.000000
  0.069175  0.051882  0.017213     16.000000
  0.086469  0.051882  0.017213      8.000000
  0.069175  0.069175  0.017213      8.000000
  0.086469  0.069175  0.017213      8.000000
  0.086469  0.086469  0.017213      2.000000
  0.000000  0.000000  0.034426      2.000000
  0.017294  0.000000  0.034426      8.000000
  0.034588  0.000000  0.034426      8.000000
  0.051882  0.000000  0.034426      8.000000
  0.069175  0.000000  0.034426      8.000000
  0.086469  0.000000  0.034426      4.000000
  0.017294  0.017294  0.034426      8.000000
  0.034588  0.017294  0.034426     16.000000
  0.051882  0.017294  0.034426     16.000000
  0.069175  0.017294  0.034426     16.000000
  0.086469  0.017294  0.034426      8.000000
  0.034588  0.034588  0.034426      8.000000
  0.051882  0.034588  0.034426     16.000000
  0.069175  0.034588  0.034426     16.000000
  0.086469  0.034588  0.034426      8.000000
  0.051882  0.051882  0.034426      8.000000
  0.069175  0.051882  0.034426     16.000000
  0.086469  0.051882  0.034426      8.000000
  0.069175  0.069175  0.034426      8.000000
  0.086469  0.069175  0.034426      8.000000
  0.086469  0.086469  0.034426      2.000000
 
 
 Subroutine IBZKPT_HF returns following result:
 ==============================================
 
 Found    500 k-points in 1st BZ
 the following    500 k-points will be used (e.g. in the exchange kernel)
 Following reciprocal coordinates:   # in IRBZ
  0.000000  0.000000  0.000000    0.00200000   1 t-inv F
  0.100000  0.000000  0.000000    0.00200000   2 t-inv F
  0.200000  0.000000  0.000000    0.00200000   3 t-inv F
  0.300000  0.000000  0.000000    0.00200000   4 t-inv F
  0.400000  0.000000  0.000000    0.00200000   5 t-inv F
  0.500000  0.000000  0.000000    0.00200000   6 t-inv F
  0.100000  0.100000  0.000000    0.00200000   7 t-inv F
  0.200000  0.100000  0.000000    0.00200000   8 t-inv F
  0.300000  0.100000  0.000000    0.00200000   9 t-inv F
  0.400000  0.100000  0.000000    0.00200000  10 t-inv F
  0.500000  0.100000  0.000000    0.00200000  11 t-inv F
  0.200000  0.200000  0.000000    0.00200000  12 t-inv F
  0.300000  0.200000  0.000000    0.00200000  13 t-inv F
  0.400000  0.200000  0.000000    0.00200000  14 t-inv F
  0.500000  0.200000  0.000000    0.00200000  15 t-inv F
  0.300000  0.300000  0.000000    0.00200000  16 t-inv F
  0.400000  0.300000  0.000000    0.00200000  17 t-inv F
  0.500000  0.300000  0.000000    0.00200000  18 t-inv F
  0.400000  0.400000  0.000000    0.00200000  19 t-inv F
  0.500000  0.400000  0.000000    0.00200000  20 t-inv F
  0.500000  0.500000  0.000000    0.00200000  21 t-inv F
  0.000000  0.000000  0.200000    0.00200000  22 t-inv F
  0.100000  0.000000  0.200000    0.00200000  23 t-inv F
  0.200000  0.000000  0.200000    0.00200000  24 t-inv F
  0.300000  0.000000  0.200000    0.00200000  25 t-inv F
  0.400000  0.000000  0.200000    0.00200000  26 t-inv F
  0.500000  0.000000  0.200000    0.00200000  27 t-inv F
  0.100000  0.100000  0.200000    0.00200000  28 t-inv F
  0.200000  0.100000  0.200000    0.00200000  29 t-inv F
  0.300000  0.100000  0.200000    0.00200000  30 t-inv F
  0.400000  0.100000  0.200000    0.00200000  31 t-inv F
  0.500000  0.100000  0.200000    0.00200000  32 t-inv F
  0.200000  0.200000  0.200000    0.00200000  33 t-inv F
  0.300000  0.200000  0.200000    0.00200000  34 t-inv F
  0.400000  0.200000  0.200000    0.00200000  35 t-inv F
  0.500000  0.200000  0.200000    0.00200000  36 t-inv F
  0.300000  0.300000  0.200000    0.00200000  37 t-inv F
  0.400000  0.300000  0.200000    0.00200000  38 t-inv F
  0.500000  0.300000  0.200000    0.00200000  39 t-inv F
  0.400000  0.400000  0.200000    0.00200000  40 t-inv F
  0.500000  0.400000  0.200000    0.00200000  41 t-inv F
  0.500000  0.500000  0.200000    0.00200000  42 t-inv F
  0.000000  0.000000  0.400000    0.00200000  43 t-inv F
  0.100000  0.000000  0.400000    0.00200000  44 t-inv F
  0.200000  0.000000  0.400000    0.00200000  45 t-inv F
  0.300000  0.000000  0.400000    0.00200000  46 t-inv F
  0.400000  0.000000  0.400000    0.00200000  47 t-inv F
  0.500000  0.000000  0.400000    0.00200000  48 t-inv F
  0.100000  0.100000  0.400000    0.00200000  49 t-inv F
  0.200000  0.100000  0.400000    0.00200000  50 t-inv F
  0.300000  0.100000  0.400000    0.00200000  51 t-inv F
  0.400000  0.100000  0.400000    0.00200000  52 t-inv F
  0.500000  0.100000  0.400000    0.00200000  53 t-inv F
  0.200000  0.200000  0.400000    0.00200000  54 t-inv F
  0.300000  0.200000  0.400000    0.00200000  55 t-inv F
  0.400000  0.200000  0.400000    0.00200000  56 t-inv F
  0.500000  0.200000  0.400000    0.00200000  57 t-inv F
  0.300000  0.300000  0.400000    0.00200000  58 t-inv F
  0.400000  0.300000  0.400000    0.00200000  59 t-inv F
  0.500000  0.300000  0.400000    0.00200000  60 t-inv F
  0.400000  0.400000  0.400000    0.00200000  61 t-inv F
  0.500000  0.400000  0.400000    0.00200000  62 t-inv F
  0.500000  0.500000  0.400000    0.00200000  63 t-inv F
  0.000000 -0.100000  0.000000    0.00200000   2 t-inv F
 -0.100000  0.000000  0.000000    0.00200000   2 t-inv F
  0.000000  0.100000  0.000000    0.00200000   2 t-inv F
  0.000000 -0.200000  0.000000    0.00200000   3 t-inv F
 -0.200000  0.000000  0.000000    0.00200000   3 t-inv F
  0.000000  0.200000  0.000000    0.00200000   3 t-inv F
  0.000000 -0.300000  0.000000    0.00200000   4 t-inv F
 -0.300000  0.000000  0.000000    0.00200000   4 t-inv F
  0.000000  0.300000  0.000000    0.00200000   4 t-inv F
  0.000000 -0.400000  0.000000    0.00200000   5 t-inv F
 -0.400000  0.000000  0.000000    0.00200000   5 t-inv F
  0.000000  0.400000  0.000000    0.00200000   5 t-inv F
  0.000000 -0.500000  0.000000    0.00200000   6 t-inv F
  0.100000 -0.100000  0.000000    0.00200000   7 t-inv F
 -0.100000 -0.100000  0.000000    0.00200000   7 t-inv F
 -0.100000  0.100000  0.000000    0.00200000   7 t-inv F
  0.100000 -0.200000  0.000000    0.00200000   8 t-inv F
 -0.200000 -0.100000  0.000000    0.00200000   8 t-inv F
 -0.100000  0.200000  0.000000    0.00200000   8 t-inv F
 -0.200000  0.100000  0.000000    0.00200000   8 t-inv F
 -0.100000 -0.200000  0.000000    0.00200000   8 t-inv F
  0.200000 -0.100000  0.000000    0.00200000   8 t-inv F
  0.100000  0.200000  0.000000    0.00200000   8 t-inv F
  0.100000 -0.300000  0.000000    0.00200000   9 t-inv F
 -0.300000 -0.100000  0.000000    0.00200000   9 t-inv F
 -0.100000  0.300000  0.000000    0.00200000   9 t-inv F
 -0.300000  0.100000  0.000000    0.00200000   9 t-inv F
 -0.100000 -0.300000  0.000000    0.00200000   9 t-inv F
  0.300000 -0.100000  0.000000    0.00200000   9 t-inv F
  0.100000  0.300000  0.000000    0.00200000   9 t-inv F
  0.100000 -0.400000  0.000000    0.00200000  10 t-inv F
 -0.400000 -0.100000  0.000000    0.00200000  10 t-inv F
 -0.100000  0.400000  0.000000    0.00200000  10 t-inv F
 -0.400000  0.100000  0.000000    0.00200000  10 t-inv F
 -0.100000 -0.400000  0.000000    0.00200000  10 t-inv F
  0.400000 -0.100000  0.000000    0.00200000  10 t-inv F
  0.100000  0.400000  0.000000    0.00200000  10 t-inv F
  0.100000 -0.500000  0.000000    0.00200000  11 t-inv F
 -0.500000 -0.100000  0.000000    0.00200000  11 t-inv F
 -0.100000  0.500000  0.000000    0.00200000  11 t-inv F
  0.200000 -0.200000  0.000000    0.00200000  12 t-inv F
 -0.200000 -0.200000  0.000000    0.00200000  12 t-inv F
 -0.200000  0.200000  0.000000    0.00200000  12 t-inv F
  0.200000 -0.300000  0.000000    0.00200000  13 t-inv F
 -0.300000 -0.200000  0.000000    0.00200000  13 t-inv F
 -0.200000  0.300000  0.000000    0.00200000  13 t-inv F
 -0.300000  0.200000  0.000000    0.00200000  13 t-inv F
 -0.200000 -0.300000  0.000000    0.00200000  13 t-inv F
  0.300000 -0.200000  0.000000    0.00200000  13 t-inv F
  0.200000  0.300000  0.000000    0.00200000  13 t-inv F
  0.200000 -0.400000  0.000000    0.00200000  14 t-inv F
 -0.400000 -0.200000  0.000000    0.00200000  14 t-inv F
 -0.200000  0.400000  0.000000    0.00200000  14 t-inv F
 -0.400000  0.200000  0.000000    0.00200000  14 t-inv F
 -0.200000 -0.400000  0.000000    0.00200000  14 t-inv F
  0.400000 -0.200000  0.000000    0.00200000  14 t-inv F
  0.200000  0.400000  0.000000    0.00200000  14 t-inv F
  0.200000 -0.500000  0.000000    0.00200000  15 t-inv F
 -0.500000 -0.200000  0.000000    0.00200000  15 t-inv F
 -0.200000  0.500000  0.000000    0.00200000  15 t-inv F
  0.300000 -0.300000  0.000000    0.00200000  16 t-inv F
 -0.300000 -0.300000  0.000000    0.00200000  16 t-inv F
 -0.300000  0.300000  0.000000    0.00200000  16 t-inv F
  0.300000 -0.400000  0.000000    0.00200000  17 t-inv F
 -0.400000 -0.300000  0.000000    0.00200000  17 t-inv F
 -0.300000  0.400000  0.000000    0.00200000  17 t-inv F
 -0.400000  0.300000  0.000000    0.00200000  17 t-inv F
 -0.300000 -0.400000  0.000000    0.00200000  17 t-inv F
  0.400000 -0.300000  0.000000    0.00200000  17 t-inv F
  0.300000  0.400000  0.000000    0.00200000  17 t-inv F
  0.300000 -0.500000  0.000000    0.00200000  18 t-inv F
 -0.500000 -0.300000  0.000000    0.00200000  18 t-inv F
 -0.300000  0.500000  0.000000    0.00200000  18 t-inv F
  0.400000 -0.400000  0.000000    0.00200000  19 t-inv F
 -0.400000 -0.400000  0.000000    0.00200000  19 t-inv F
 -0.400000  0.400000  0.000000    0.00200000  19 t-inv F
  0.400000 -0.500000  0.000000    0.00200000  20 t-inv F
 -0.500000 -0.400000  0.000000    0.00200000  20 t-inv F
 -0.400000  0.500000  0.000000    0.00200000  20 t-inv F
  0.000000  0.000000 -0.200000    0.00200000  22 t-inv F
  0.000000 -0.100000 -0.200000    0.00200000  23 t-inv F
 -0.100000  0.000000  0.200000    0.00200000  23 t-inv F
  0.000000  0.100000 -0.200000    0.00200000  23 t-inv F
 -0.100000  0.000000 -0.200000    0.00200000  23 t-inv F
  0.000000 -0.100000  0.200000    0.00200000  23 t-inv F
  0.100000  0.000000 -0.200000    0.00200000  23 t-inv F
  0.000000  0.100000  0.200000    0.00200000  23 t-inv F
  0.000000 -0.200000 -0.200000    0.00200000  24 t-inv F
 -0.200000  0.000000  0.200000    0.00200000  24 t-inv F
  0.000000  0.200000 -0.200000    0.00200000  24 t-inv F
 -0.200000  0.000000 -0.200000    0.00200000  24 t-inv F
  0.000000 -0.200000  0.200000    0.00200000  24 t-inv F
  0.200000  0.000000 -0.200000    0.00200000  24 t-inv F
  0.000000  0.200000  0.200000    0.00200000  24 t-inv F
  0.000000 -0.300000 -0.200000    0.00200000  25 t-inv F
 -0.300000  0.000000  0.200000    0.00200000  25 t-inv F
  0.000000  0.300000 -0.200000    0.00200000  25 t-inv F
 -0.300000  0.000000 -0.200000    0.00200000  25 t-inv F
  0.000000 -0.300000  0.200000    0.00200000  25 t-inv F
  0.300000  0.000000 -0.200000    0.00200000  25 t-inv F
  0.000000  0.300000  0.200000    0.00200000  25 t-inv F
  0.000000 -0.400000 -0.200000    0.00200000  26 t-inv F
 -0.400000  0.000000  0.200000    0.00200000  26 t-inv F
  0.000000  0.400000 -0.200000    0.00200000  26 t-inv F
 -0.400000  0.000000 -0.200000    0.00200000  26 t-inv F
  0.000000 -0.400000  0.200000    0.00200000  26 t-inv F
  0.400000  0.000000 -0.200000    0.00200000  26 t-inv F
  0.000000  0.400000  0.200000    0.00200000  26 t-inv F
  0.000000 -0.500000 -0.200000    0.00200000  27 t-inv F
 -0.500000  0.000000 -0.200000    0.00200000  27 t-inv F
  0.000000 -0.500000  0.200000    0.00200000  27 t-inv F
  0.100000 -0.100000 -0.200000    0.00200000  28 t-inv F
 -0.100000 -0.100000  0.200000    0.00200000  28 t-inv F
 -0.100000  0.100000 -0.200000    0.00200000  28 t-inv F
  0.100000 -0.200000 -0.200000    0.00200000  29 t-inv F
 -0.200000 -0.100000  0.200000    0.00200000  29 t-inv F
 -0.100000  0.200000 -0.200000    0.00200000  29 t-inv F
 -0.200000  0.100000 -0.200000    0.00200000  29 t-inv F
 -0.100000 -0.200000  0.200000    0.00200000  29 t-inv F
  0.200000 -0.100000 -0.200000    0.00200000  29 t-inv F
  0.100000  0.200000  0.200000    0.00200000  29 t-inv F
  0.100000 -0.300000 -0.200000    0.00200000  30 t-inv F
 -0.300000 -0.100000  0.200000    0.00200000  30 t-inv F
 -0.100000  0.300000 -0.200000    0.00200000  30 t-inv F
 -0.300000  0.100000 -0.200000    0.00200000  30 t-inv F
 -0.100000 -0.300000  0.200000    0.00200000  30 t-inv F
  0.300000 -0.100000 -0.200000    0.00200000  30 t-inv F
  0.100000  0.300000  0.200000    0.00200000  30 t-inv F
  0.100000 -0.400000 -0.200000    0.00200000  31 t-inv F
 -0.400000 -0.100000  0.200000    0.00200000  31 t-inv F
 -0.100000  0.400000 -0.200000    0.00200000  31 t-inv F
 -0.400000  0.100000 -0.200000    0.00200000  31 t-inv F
 -0.100000 -0.400000  0.200000    0.00200000  31 t-inv F
  0.400000 -0.100000 -0.200000    0.00200000  31 t-inv F
  0.100000  0.400000  0.200000    0.00200000  31 t-inv F
  0.100000 -0.500000 -0.200000    0.00200000  32 t-inv F
 -0.500000 -0.100000  0.200000    0.00200000  32 t-inv F
 -0.100000  0.500000 -0.200000    0.00200000  32 t-inv F
 -0.500000  0.100000 -0.200000    0.00200000  32 t-inv F
 -0.100000 -0.500000  0.200000    0.00200000  32 t-inv F
  0.500000 -0.100000 -0.200000    0.00200000  32 t-inv F
  0.100000  0.500000  0.200000    0.00200000  32 t-inv F
  0.200000 -0.200000 -0.200000    0.00200000  33 t-inv F
 -0.200000 -0.200000  0.200000    0.00200000  33 t-inv F
 -0.200000  0.200000 -0.200000    0.00200000  33 t-inv F
  0.200000 -0.300000 -0.200000    0.00200000  34 t-inv F
 -0.300000 -0.200000  0.200000    0.00200000  34 t-inv F
 -0.200000  0.300000 -0.200000    0.00200000  34 t-inv F
 -0.300000  0.200000 -0.200000    0.00200000  34 t-inv F
 -0.200000 -0.300000  0.200000    0.00200000  34 t-inv F
  0.300000 -0.200000 -0.200000    0.00200000  34 t-inv F
  0.200000  0.300000  0.200000    0.00200000  34 t-inv F
  0.200000 -0.400000 -0.200000    0.00200000  35 t-inv F
 -0.400000 -0.200000  0.200000    0.00200000  35 t-inv F
 -0.200000  0.400000 -0.200000    0.00200000  35 t-inv F
 -0.400000  0.200000 -0.200000    0.00200000  35 t-inv F
 -0.200000 -0.400000  0.200000    0.00200000  35 t-inv F
  0.400000 -0.200000 -0.200000    0.00200000  35 t-inv F
  0.200000  0.400000  0.200000    0.00200000  35 t-inv F
  0.200000 -0.500000 -0.200000    0.00200000  36 t-inv F
 -0.500000 -0.200000  0.200000    0.00200000  36 t-inv F
 -0.200000  0.500000 -0.200000    0.00200000  36 t-inv F
 -0.500000  0.200000 -0.200000    0.00200000  36 t-inv F
 -0.200000 -0.500000  0.200000    0.00200000  36 t-inv F
  0.500000 -0.200000 -0.200000    0.00200000  36 t-inv F
  0.200000  0.500000  0.200000    0.00200000  36 t-inv F
  0.300000 -0.300000 -0.200000    0.00200000  37 t-inv F
 -0.300000 -0.300000  0.200000    0.00200000  37 t-inv F
 -0.300000  0.300000 -0.200000    0.00200000  37 t-inv F
  0.300000 -0.400000 -0.200000    0.00200000  38 t-inv F
 -0.400000 -0.300000  0.200000    0.00200000  38 t-inv F
 -0.300000  0.400000 -0.200000    0.00200000  38 t-inv F
 -0.400000  0.300000 -0.200000    0.00200000  38 t-inv F
 -0.300000 -0.400000  0.200000    0.00200000  38 t-inv F
  0.400000 -0.300000 -0.200000    0.00200000  38 t-inv F
  0.300000  0.400000  0.200000    0.00200000  38 t-inv F
  0.300000 -0.500000 -0.200000    0.00200000  39 t-inv F
 -0.500000 -0.300000  0.200000    0.00200000  39 t-inv F
 -0.300000  0.500000 -0.200000    0.00200000  39 t-inv F
 -0.500000  0.300000 -0.200000    0.00200000  39 t-inv F
 -0.300000 -0.500000  0.200000    0.00200000  39 t-inv F
  0.500000 -0.300000 -0.200000    0.00200000  39 t-inv F
  0.300000  0.500000  0.200000    0.00200000  39 t-inv F
  0.400000 -0.400000 -0.200000    0.00200000  40 t-inv F
 -0.400000 -0.400000  0.200000    0.00200000  40 t-inv F
 -0.400000  0.400000 -0.200000    0.00200000  40 t-inv F
  0.400000 -0.500000 -0.200000    0.00200000  41 t-inv F
 -0.500000 -0.400000  0.200000    0.00200000  41 t-inv F
 -0.400000  0.500000 -0.200000    0.00200000  41 t-inv F
 -0.500000  0.400000 -0.200000    0.00200000  41 t-inv F
 -0.400000 -0.500000  0.200000    0.00200000  41 t-inv F
  0.500000 -0.400000 -0.200000    0.00200000  41 t-inv F
  0.400000  0.500000  0.200000    0.00200000  41 t-inv F
  0.500000 -0.500000 -0.200000    0.00200000  42 t-inv F
  0.000000  0.000000 -0.400000    0.00200000  43 t-inv F
  0.000000 -0.100000 -0.400000    0.00200000  44 t-inv F
 -0.100000  0.000000  0.400000    0.00200000  44 t-inv F
  0.000000  0.100000 -0.400000    0.00200000  44 t-inv F
 -0.100000  0.000000 -0.400000    0.00200000  44 t-inv F
  0.000000 -0.100000  0.400000    0.00200000  44 t-inv F
  0.100000  0.000000 -0.400000    0.00200000  44 t-inv F
  0.000000  0.100000  0.400000    0.00200000  44 t-inv F
  0.000000 -0.200000 -0.400000    0.00200000  45 t-inv F
 -0.200000  0.000000  0.400000    0.00200000  45 t-inv F
  0.000000  0.200000 -0.400000    0.00200000  45 t-inv F
 -0.200000  0.000000 -0.400000    0.00200000  45 t-inv F
  0.000000 -0.200000  0.400000    0.00200000  45 t-inv F
  0.200000  0.000000 -0.400000    0.00200000  45 t-inv F
  0.000000  0.200000  0.400000    0.00200000  45 t-inv F
  0.000000 -0.300000 -0.400000    0.00200000  46 t-inv F
 -0.300000  0.000000  0.400000    0.00200000  46 t-inv F
  0.000000  0.300000 -0.400000    0.00200000  46 t-inv F
 -0.300000  0.000000 -0.400000    0.00200000  46 t-inv F
  0.000000 -0.300000  0.400000    0.00200000  46 t-inv F
  0.300000  0.000000 -0.400000    0.00200000  46 t-inv F
  0.000000  0.300000  0.400000    0.00200000  46 t-inv F
  0.000000 -0.400000 -0.400000    0.00200000  47 t-inv F
 -0.400000  0.000000  0.400000    0.00200000  47 t-inv F
  0.000000  0.400000 -0.400000    0.00200000  47 t-inv F
 -0.400000  0.000000 -0.400000    0.00200000  47 t-inv F
  0.000000 -0.400000  0.400000    0.00200000  47 t-inv F
  0.400000  0.000000 -0.400000    0.00200000  47 t-inv F
  0.000000  0.400000  0.400000    0.00200000  47 t-inv F
  0.000000 -0.500000 -0.400000    0.00200000  48 t-inv F
 -0.500000  0.000000 -0.400000    0.00200000  48 t-inv F
  0.000000 -0.500000  0.400000    0.00200000  48 t-inv F
  0.100000 -0.100000 -0.400000    0.00200000  49 t-inv F
 -0.100000 -0.100000  0.400000    0.00200000  49 t-inv F
 -0.100000  0.100000 -0.400000    0.00200000  49 t-inv F
  0.100000 -0.200000 -0.400000    0.00200000  50 t-inv F
 -0.200000 -0.100000  0.400000    0.00200000  50 t-inv F
 -0.100000  0.200000 -0.400000    0.00200000  50 t-inv F
 -0.200000  0.100000 -0.400000    0.00200000  50 t-inv F
 -0.100000 -0.200000  0.400000    0.00200000  50 t-inv F
  0.200000 -0.100000 -0.400000    0.00200000  50 t-inv F
  0.100000  0.200000  0.400000    0.00200000  50 t-inv F
  0.100000 -0.300000 -0.400000    0.00200000  51 t-inv F
 -0.300000 -0.100000  0.400000    0.00200000  51 t-inv F
 -0.100000  0.300000 -0.400000    0.00200000  51 t-inv F
 -0.300000  0.100000 -0.400000    0.00200000  51 t-inv F
 -0.100000 -0.300000  0.400000    0.00200000  51 t-inv F
  0.300000 -0.100000 -0.400000    0.00200000  51 t-inv F
  0.100000  0.300000  0.400000    0.00200000  51 t-inv F
  0.100000 -0.400000 -0.400000    0.00200000  52 t-inv F
 -0.400000 -0.100000  0.400000    0.00200000  52 t-inv F
 -0.100000  0.400000 -0.400000    0.00200000  52 t-inv F
 -0.400000  0.100000 -0.400000    0.00200000  52 t-inv F
 -0.100000 -0.400000  0.400000    0.00200000  52 t-inv F
  0.400000 -0.100000 -0.400000    0.00200000  52 t-inv F
  0.100000  0.400000  0.400000    0.00200000  52 t-inv F
  0.100000 -0.500000 -0.400000    0.00200000  53 t-inv F
 -0.500000 -0.100000  0.400000    0.00200000  53 t-inv F
 -0.100000  0.500000 -0.400000    0.00200000  53 t-inv F
 -0.500000  0.100000 -0.400000    0.00200000  53 t-inv F
 -0.100000 -0.500000  0.400000    0.00200000  53 t-inv F
  0.500000 -0.100000 -0.400000    0.00200000  53 t-inv F
  0.100000  0.500000  0.400000    0.00200000  53 t-inv F
  0.200000 -0.200000 -0.400000    0.00200000  54 t-inv F
 -0.200000 -0.200000  0.400000    0.00200000  54 t-inv F
 -0.200000  0.200000 -0.400000    0.00200000  54 t-inv F
  0.200000 -0.300000 -0.400000    0.00200000  55 t-inv F
 -0.300000 -0.200000  0.400000    0.00200000  55 t-inv F
 -0.200000  0.300000 -0.400000    0.00200000  55 t-inv F
 -0.300000  0.200000 -0.400000    0.00200000  55 t-inv F
 -0.200000 -0.300000  0.400000    0.00200000  55 t-inv F
  0.300000 -0.200000 -0.400000    0.00200000  55 t-inv F
  0.200000  0.300000  0.400000    0.00200000  55 t-inv F
  0.200000 -0.400000 -0.400000    0.00200000  56 t-inv F
 -0.400000 -0.200000  0.400000    0.00200000  56 t-inv F
 -0.200000  0.400000 -0.400000    0.00200000  56 t-inv F
 -0.400000  0.200000 -0.400000    0.00200000  56 t-inv F
 -0.200000 -0.400000  0.400000    0.00200000  56 t-inv F
  0.400000 -0.200000 -0.400000    0.00200000  56 t-inv F
  0.200000  0.400000  0.400000    0.00200000  56 t-inv F
  0.200000 -0.500000 -0.400000    0.00200000  57 t-inv F
 -0.500000 -0.200000  0.400000    0.00200000  57 t-inv F
 -0.200000  0.500000 -0.400000    0.00200000  57 t-inv F
 -0.500000  0.200000 -0.400000    0.00200000  57 t-inv F
 -0.200000 -0.500000  0.400000    0.00200000  57 t-inv F
  0.500000 -0.200000 -0.400000    0.00200000  57 t-inv F
  0.200000  0.500000  0.400000    0.00200000  57 t-inv F
  0.300000 -0.300000 -0.400000    0.00200000  58 t-inv F
 -0.300000 -0.300000  0.400000    0.00200000  58 t-inv F
 -0.300000  0.300000 -0.400000    0.00200000  58 t-inv F
  0.300000 -0.400000 -0.400000    0.00200000  59 t-inv F
 -0.400000 -0.300000  0.400000    0.00200000  59 t-inv F
 -0.300000  0.400000 -0.400000    0.00200000  59 t-inv F
 -0.400000  0.300000 -0.400000    0.00200000  59 t-inv F
 -0.300000 -0.400000  0.400000    0.00200000  59 t-inv F
  0.400000 -0.300000 -0.400000    0.00200000  59 t-inv F
  0.300000  0.400000  0.400000    0.00200000  59 t-inv F
  0.300000 -0.500000 -0.400000    0.00200000  60 t-inv F
 -0.500000 -0.300000  0.400000    0.00200000  60 t-inv F
 -0.300000  0.500000 -0.400000    0.00200000  60 t-inv F
 -0.500000  0.300000 -0.400000    0.00200000  60 t-inv F
 -0.300000 -0.500000  0.400000    0.00200000  60 t-inv F
  0.500000 -0.300000 -0.400000    0.00200000  60 t-inv F
  0.300000  0.500000  0.400000    0.00200000  60 t-inv F
  0.400000 -0.400000 -0.400000    0.00200000  61 t-inv F
 -0.400000 -0.400000  0.400000    0.00200000  61 t-inv F
 -0.400000  0.400000 -0.400000    0.00200000  61 t-inv F
  0.400000 -0.500000 -0.400000    0.00200000  62 t-inv F
 -0.500000 -0.400000  0.400000    0.00200000  62 t-inv F
 -0.400000  0.500000 -0.400000    0.00200000  62 t-inv F
 -0.500000  0.400000 -0.400000    0.00200000  62 t-inv F
 -0.400000 -0.500000  0.400000    0.00200000  62 t-inv F
  0.500000 -0.400000 -0.400000    0.00200000  62 t-inv F
  0.400000  0.500000  0.400000    0.00200000  62 t-inv F
  0.500000 -0.500000 -0.400000    0.00200000  63 t-inv F
 -0.100000 -0.100000 -0.200000    0.00200000  28 t-inv T
 -0.100000  0.100000  0.200000    0.00200000  28 t-inv T
  0.100000  0.100000 -0.200000    0.00200000  28 t-inv T
  0.100000 -0.100000  0.200000    0.00200000  28 t-inv T
 -0.200000 -0.100000 -0.200000    0.00200000  29 t-inv T
 -0.100000  0.200000  0.200000    0.00200000  29 t-inv T
  0.200000  0.100000 -0.200000    0.00200000  29 t-inv T
  0.100000 -0.200000  0.200000    0.00200000  29 t-inv T
  0.200000 -0.100000  0.200000    0.00200000  29 t-inv T
  0.100000  0.200000 -0.200000    0.00200000  29 t-inv T
 -0.200000  0.100000  0.200000    0.00200000  29 t-inv T
 -0.100000 -0.200000 -0.200000    0.00200000  29 t-inv T
 -0.300000 -0.100000 -0.200000    0.00200000  30 t-inv T
 -0.100000  0.300000  0.200000    0.00200000  30 t-inv T
  0.300000  0.100000 -0.200000    0.00200000  30 t-inv T
  0.100000 -0.300000  0.200000    0.00200000  30 t-inv T
  0.300000 -0.100000  0.200000    0.00200000  30 t-inv T
  0.100000  0.300000 -0.200000    0.00200000  30 t-inv T
 -0.300000  0.100000  0.200000    0.00200000  30 t-inv T
 -0.100000 -0.300000 -0.200000    0.00200000  30 t-inv T
 -0.400000 -0.100000 -0.200000    0.00200000  31 t-inv T
 -0.100000  0.400000  0.200000    0.00200000  31 t-inv T
  0.400000  0.100000 -0.200000    0.00200000  31 t-inv T
  0.100000 -0.400000  0.200000    0.00200000  31 t-inv T
  0.400000 -0.100000  0.200000    0.00200000  31 t-inv T
  0.100000  0.400000 -0.200000    0.00200000  31 t-inv T
 -0.400000  0.100000  0.200000    0.00200000  31 t-inv T
 -0.100000 -0.400000 -0.200000    0.00200000  31 t-inv T
 -0.200000 -0.200000 -0.200000    0.00200000  33 t-inv T
 -0.200000  0.200000  0.200000    0.00200000  33 t-inv T
  0.200000  0.200000 -0.200000    0.00200000  33 t-inv T
  0.200000 -0.200000  0.200000    0.00200000  33 t-inv T
 -0.300000 -0.200000 -0.200000    0.00200000  34 t-inv T
 -0.200000  0.300000  0.200000    0.00200000  34 t-inv T
  0.300000  0.200000 -0.200000    0.00200000  34 t-inv T
  0.200000 -0.300000  0.200000    0.00200000  34 t-inv T
  0.300000 -0.200000  0.200000    0.00200000  34 t-inv T
  0.200000  0.300000 -0.200000    0.00200000  34 t-inv T
 -0.300000  0.200000  0.200000    0.00200000  34 t-inv T
 -0.200000 -0.300000 -0.200000    0.00200000  34 t-inv T
 -0.400000 -0.200000 -0.200000    0.00200000  35 t-inv T
 -0.200000  0.400000  0.200000    0.00200000  35 t-inv T
  0.400000  0.200000 -0.200000    0.00200000  35 t-inv T
  0.200000 -0.400000  0.200000    0.00200000  35 t-inv T
  0.400000 -0.200000  0.200000    0.00200000  35 t-inv T
  0.200000  0.400000 -0.200000    0.00200000  35 t-inv T
 -0.400000  0.200000  0.200000    0.00200000  35 t-inv T
 -0.200000 -0.400000 -0.200000    0.00200000  35 t-inv T
 -0.300000 -0.300000 -0.200000    0.00200000  37 t-inv T
 -0.300000  0.300000  0.200000    0.00200000  37 t-inv T
  0.300000  0.300000 -0.200000    0.00200000  37 t-inv T
  0.300000 -0.300000  0.200000    0.00200000  37 t-inv T
 -0.400000 -0.300000 -0.200000    0.00200000  38 t-inv T
 -0.300000  0.400000  0.200000    0.00200000  38 t-inv T
  0.400000  0.300000 -0.200000    0.00200000  38 t-inv T
  0.300000 -0.400000  0.200000    0.00200000  38 t-inv T
  0.400000 -0.300000  0.200000    0.00200000  38 t-inv T
  0.300000  0.400000 -0.200000    0.00200000  38 t-inv T
 -0.400000  0.300000  0.200000    0.00200000  38 t-inv T
 -0.300000 -0.400000 -0.200000    0.00200000  38 t-inv T
 -0.400000 -0.400000 -0.200000    0.00200000  40 t-inv T
 -0.400000  0.400000  0.200000    0.00200000  40 t-inv T
  0.400000  0.400000 -0.200000    0.00200000  40 t-inv T
  0.400000 -0.400000  0.200000    0.00200000  40 t-inv T
 -0.100000 -0.100000 -0.400000    0.00200000  49 t-inv T
 -0.100000  0.100000  0.400000    0.00200000  49 t-inv T
  0.100000  0.100000 -0.400000    0.00200000  49 t-inv T
  0.100000 -0.100000  0.400000    0.00200000  49 t-inv T
 -0.200000 -0.100000 -0.400000    0.00200000  50 t-inv T
 -0.100000  0.200000  0.400000    0.00200000  50 t-inv T
  0.200000  0.100000 -0.400000    0.00200000  50 t-inv T
  0.100000 -0.200000  0.400000    0.00200000  50 t-inv T
  0.200000 -0.100000  0.400000    0.00200000  50 t-inv T
  0.100000  0.200000 -0.400000    0.00200000  50 t-inv T
 -0.200000  0.100000  0.400000    0.00200000  50 t-inv T
 -0.100000 -0.200000 -0.400000    0.00200000  50 t-inv T
 -0.300000 -0.100000 -0.400000    0.00200000  51 t-inv T
 -0.100000  0.300000  0.400000    0.00200000  51 t-inv T
  0.300000  0.100000 -0.400000    0.00200000  51 t-inv T
  0.100000 -0.300000  0.400000    0.00200000  51 t-inv T
  0.300000 -0.100000  0.400000    0.00200000  51 t-inv T
  0.100000  0.300000 -0.400000    0.00200000  51 t-inv T
 -0.300000  0.100000  0.400000    0.00200000  51 t-inv T
 -0.100000 -0.300000 -0.400000    0.00200000  51 t-inv T
 -0.400000 -0.100000 -0.400000    0.00200000  52 t-inv T
 -0.100000  0.400000  0.400000    0.00200000  52 t-inv T
  0.400000  0.100000 -0.400000    0.00200000  52 t-inv T
  0.100000 -0.400000  0.400000    0.00200000  52 t-inv T
  0.400000 -0.100000  0.400000    0.00200000  52 t-inv T
  0.100000  0.400000 -0.400000    0.00200000  52 t-inv T
 -0.400000  0.100000  0.400000    0.00200000  52 t-inv T
 -0.100000 -0.400000 -0.400000    0.00200000  52 t-inv T
 -0.200000 -0.200000 -0.400000    0.00200000  54 t-inv T
 -0.200000  0.200000  0.400000    0.00200000  54 t-inv T
  0.200000  0.200000 -0.400000    0.00200000  54 t-inv T
  0.200000 -0.200000  0.400000    0.00200000  54 t-inv T
 -0.300000 -0.200000 -0.400000    0.00200000  55 t-inv T
 -0.200000  0.300000  0.400000    0.00200000  55 t-inv T
  0.300000  0.200000 -0.400000    0.00200000  55 t-inv T
  0.200000 -0.300000  0.400000    0.00200000  55 t-inv T
  0.300000 -0.200000  0.400000    0.00200000  55 t-inv T
  0.200000  0.300000 -0.400000    0.00200000  55 t-inv T
 -0.300000  0.200000  0.400000    0.00200000  55 t-inv T
 -0.200000 -0.300000 -0.400000    0.00200000  55 t-inv T
 -0.400000 -0.200000 -0.400000    0.00200000  56 t-inv T
 -0.200000  0.400000  0.400000    0.00200000  56 t-inv T
  0.400000  0.200000 -0.400000    0.00200000  56 t-inv T
  0.200000 -0.400000  0.400000    0.00200000  56 t-inv T
  0.400000 -0.200000  0.400000    0.00200000  56 t-inv T
  0.200000  0.400000 -0.400000    0.00200000  56 t-inv T
 -0.400000  0.200000  0.400000    0.00200000  56 t-inv T
 -0.200000 -0.400000 -0.400000    0.00200000  56 t-inv T
 -0.300000 -0.300000 -0.400000    0.00200000  58 t-inv T
 -0.300000  0.300000  0.400000    0.00200000  58 t-inv T
  0.300000  0.300000 -0.400000    0.00200000  58 t-inv T
  0.300000 -0.300000  0.400000    0.00200000  58 t-inv T
 -0.400000 -0.300000 -0.400000    0.00200000  59 t-inv T
 -0.300000  0.400000  0.400000    0.00200000  59 t-inv T
  0.400000  0.300000 -0.400000    0.00200000  59 t-inv T
  0.300000 -0.400000  0.400000    0.00200000  59 t-inv T
  0.400000 -0.300000  0.400000    0.00200000  59 t-inv T
  0.300000  0.400000 -0.400000    0.00200000  59 t-inv T
 -0.400000  0.300000  0.400000    0.00200000  59 t-inv T
 -0.300000 -0.400000 -0.400000    0.00200000  59 t-inv T
 -0.400000 -0.400000 -0.400000    0.00200000  61 t-inv T
 -0.400000  0.400000  0.400000    0.00200000  61 t-inv T
  0.400000  0.400000 -0.400000    0.00200000  61 t-inv T
  0.400000 -0.400000  0.400000    0.00200000  61 t-inv T


--------------------------------------------------------------------------------------------------------




 Dimension of arrays:
   k-points           NKPTS =     63   k-points in BZ     NKDIM =    500   number of bands    NBANDS=    640
   number of dos      NEDOS =    301   number of ions     NIONS =     16
   non local maximal  LDIM  =      6   non local SUM 2l+1 LMDIM =     18
   total plane-waves  NPLWV =  90720
   max r-space proj   IRMAX =      1   max aug-charges    IRDMAX=  81658
   dimension x,y,z NGX =    36 NGY =   36 NGZ =   70
   dimension x,y,z NGXF=    72 NGYF=   72 NGZF=  140
   support grid    NGXF=   144 NGYF=  144 NGZF=  280
   ions per type =               4   4   8
   NGX,Y,Z   is equivalent  to a cutoff of  10.35, 10.35, 10.02 a.u.
   NGXF,Y,Z  is equivalent  to a cutoff of  20.70, 20.70, 20.03 a.u.

 SYSTEM =  CuInSe                                  
 POSCAR =  Cu1-In1-Se2 'I -4 2 d'  #122            

 Startparameter for this run:
   NWRITE =      2    write-flag & timer
   PREC   = accura    normal or accurate (medium, high low for compatibility)
   ISTART =      1    job   : 0-new  1-cont  2-samecut
   ICHARG =      0    charge: 1-file 2-atom 10-const
   ISPIN  =      1    spin polarized calculation?
   LNONCOLLINEAR =      F non collinear calculations
   LSORBIT =      F    spin-orbit coupling
   INIWAV =      1    electr: 0-lowe 1-rand  2-diag
   LASPH  =      F    aspherical Exc in radial PAW
   METAGGA=      F    non-selfconsistent MetaGGA calc.

 Electronic Relaxation 1
   ENCUT  =  300.0 eV  22.05 Ry    4.70 a.u.   8.17  8.17 16.41*2*pi/ulx,y,z
   ENINI  =  300.0     initial cutoff
   ENAUG  =  516.5 eV  augmentation charge cutoff
   NELM   =      1;   NELMIN=  2; NELMDL=  0     # of ELM steps 
   EDIFF  = 0.1E-03   stopping-criterion for ELM
   LREAL  =      F    real-space projection
   NLSPLINE    = F    spline interpolate recip. space projectors
   LCOMPAT=      F    compatible to vasp.4.4
   GGA_COMPAT  = T    GGA compatible to vasp.4.4-vasp.4.6
   LMAXPAW     = -100 max onsite density
   LMAXMIX     =    4 max onsite mixed and CHGCAR
   VOSKOWN=      0    Vosko Wilk Nusair interpolation
   ROPT   =    0.00000   0.00000   0.00000
 Ionic relaxation
   EDIFFG = 0.1E-02   stopping-criterion for IOM
   NSW    =      0    number of steps for IOM
   NBLOCK =      1;   KBLOCK =      1    inner block; outer block 
   IBRION =     -1    ionic relax: 0-MD 1-quasi-New 2-CG
   NFREE  =      0    steps in history (QN), initial steepest desc. (CG)
   ISIF   =      0    stress and relaxation
   IWAVPR =     10    prediction:  0-non 1-charg 2-wave 3-comb
   ISYM   =      3    0-nonsym 1-usesym 2-fastsym
   LCORR  =      T    Harris-Foulkes like correction to forces

   POTIM  = 0.5000    time-step for ionic-motion
   TEIN   =    0.0    initial temperature
   TEBEG  =    0.0;   TEEND  =   0.0 temperature during run
   SMASS  =  -3.00    Nose mass-parameter (am)
   estimated Nose-frequenzy (Omega)   =  0.10E-29 period in steps = 0.13E+47 mass=  -0.764E-27a.u.
   SCALEE = 1.0000    scale energy and forces
   NPACO  =    256;   APACO  = 16.0  distance and # of slots for P.C.
   PSTRESS=    0.0 pullay stress

  Mass of Ions in am
   POMASS =  63.55114.82 78.96
  Ionic Valenz
   ZVAL   =  11.00 13.00  6.00
  Atomic Wigner-Seitz radii
   RWIGS  =  -1.00 -1.00 -1.00
  virtual crystal weights 
   VCA    =   1.00  1.00  1.00
   NELECT =     144.0000    total number of electrons
   NUPDOWN=      -1.0000    fix difference up-down

 DOS related values:
   EMIN   =  10.00;   EMAX   =-10.00  energy-range for DOS
   EFERMI =   0.00
   ISMEAR =     0;   SIGMA  =   0.01  broadening in eV -4-tet -1-fermi 0-gaus

 Electronic relaxation 2 (details)
   IALGO  =     38    algorithm
   LDIAG  =      T    sub-space diagonalisation (order eigenvalues)
   LSUBROT=      F    optimize rotation matrix (better conditioning)
   TURBO    =      0    0=normal 1=particle mesh
   IRESTART =      0    0=no restart 2=restart with 2 vectors
   NREBOOT  =      0    no. of reboots
   NMIN     =      0    reboot dimension
   EREF     =   0.00    reference energy to select bands
   IMIX   =      4    mixing-type and parameters
     AMIX     =   0.40;   BMIX     =  1.00
     AMIX_MAG =   1.60;   BMIX_MAG =  1.00
     AMIN     =   0.10
     WC   =   100.;   INIMIX=   1;  MIXPRE=   1;  MAXMIX= -45

 Intra band minimization:
   WEIMIN = 0.0000     energy-eigenvalue tresh-hold
   EBREAK =  0.39E-07  absolut break condition
   DEPER  =   0.30     relativ break condition  

   TIME   =   0.40     timestep for ELM

  volume/ion in A,a.u.               =      24.28       163.86
  Fermi-wavevector in a.u.,A,eV,Ry     =   1.175975  2.222271 18.815737  1.382918
  Thomas-Fermi vector in A             =   2.312347
 
 Write flags
   LWAVE        =      T    write WAVECAR
   LDOWNSAMPLE  =      F    k-point downsampling of WAVECAR
   LCHARG       =      T    write CHGCAR
   LVTOT        =      F    write LOCPOT, total local potential
   LVHAR        =      F    write LOCPOT, Hartree potential only
   LELF         =      F    write electronic localiz. function (ELF)
   LORBIT       =     11    0 simple, 1 ext, 2 COOP (PROOUT), +10 PAW based schemes


 Dipole corrections
   LMONO  =      F    monopole corrections only (constant potential shift)
   LDIPOL =      F    correct potential (dipole corrections)
   IDIPOL =      0    1-x, 2-y, 3-z, 4-all directions 
   EPSILON=  1.0000000 bulk dielectric constant

 Exchange correlation treatment:
   GGA     =    --    GGA type
   LEXCH   =     8    internal setting for exchange type
   VOSKOWN=      0    Vosko Wilk Nusair interpolation
   EXXOEP  =     0    0=HF, 1=EXX-LHF (local Hartree Fock) 2=EXX OEP
   LHFCALC =     T    Hartree Fock is set to
   LSYMGRAD=     F    symmetrize gradient (conserves proper symmetry)
   PRECFOCK=normal    Normal, Fast or Accurate (Low or Medium for compatibility)
   LRHFCALC=     F    long range Hartree Fock
   LRSCOR  =     F    long range correlation only (use DFT for short range part)
   LTHOMAS =     F    Thomas Fermi screening in HF
   LMODELHF=     F    short range full HF, long range fraction AEXX
   LFOCKACE=     T    use Adeptively-Compressed-Exchange operator
   ENCUT4O =  -1.0   cutoff for four orbital integrals eV
   LMAXFOCK=     4    L truncation for augmentation on plane wave grid
   LMAXFOCKAE=   4    L truncation for all-electron charge restoration on plane wave grid
   NMAXFOCKAE=   1    number of basis functions for all-electron charge restoration
   LFOCKAEDFT=     F  apply the AE augmentation even for DFT
   NKREDX  =     5    reduce k-point grid by
   NKREDY  =     5    reduce k-point grid by
   NKREDZ  =     5    reduce k-point grid by
   SHIFTRED=     F    shift reduced grid of Gamma
   HFKIDENT=     F    idential grid for each k-point
   ODDONLY =     F    use only odd q-grid points
   EVENONLY=     F    use only even q-grid points
   HFALPHA =   -1.0000 decay constant for conv. correction
   MCALPHA =    0.0000 extent of test-charge in conv. correction in multipole expansion
   AEXX    =    1.0000 exact exchange contribution
   HFSCREEN=    0.0000 screening length (either q_TF or 0.3 A-1)
   HFSCREENC=   0.0000 screening length for correlation (either q_TF or 0.3 A-1)
   HFRCUT  =    0.0000 spherical cutoff for potential kernel
   ALDAX   =    0.0000 LDA exchange part
   AGGAX   =    0.0000 GGA exchange part
   ALDAC   =    0.0000 LDA correlation
   AGGAC   =    0.0000 GGA correlation
   ENCUTFOCK=   0.0 apply spherical cutoff to Coloumb kernel
   NBANDSGWLOW=     1    first orbital included in HF term
   NBLOCK_FOCK=    64    blocking factor in FOCK_ACC
 Linear response parameters
   LEPSILON=     F    determine dielectric tensor
   LRPA    =     F    only Hartree local field effects (RPA)
   LNABLA  =     F    use nabla operator in PAW spheres
   LVEL    =     F    velocity operator in full k-point grid
   LINTERFAST=   F  fast interpolation
   KINTER  =     0    interpolate to denser k-point grid
   CSHIFT  =0.1000    complex shift for real part using Kramers Kronig
   OMEGAMAX=  -1.0    maximum frequency
   DEG_THRESHOLD= 0.2000000E-02 threshold for treating states as degnerate
   RTIME   =   -0.100 relaxation time in fs
  (WPLASMAI=    0.000 imaginary part of plasma frequency in eV, 0.658/RTIME)
   DFIELD  = 0.0000000 0.0000000 0.0000000 field for delta impulse in time
 
 Orbital magnetization related:
   ORBITALMAG=     F  switch on orbital magnetization
   LCHIMAG   =     F  perturbation theory with respect to B field
   DQ        =  0.001000  dq finite difference perturbation B field
   LLRAUG    =     F  two centre corrections for induced B field

 Response functions by sum over occupied states:
   ALGO                = EVGW0    selected many-body perturbation algorithm
   LFINITE_TEMPERATURE =     F    use finite temperature formalism
   LFXC                =     F    include DFT xc kernel in TD-HF and W
   LADDER              =     F    particle hole ladder diagrams for BSE/TD-HF and W (Nano-quanta)
   LRPAFORCE           =     F    calculate RPA forces
   LHARTREE            =     T    include Hartree terms (bubbles-RPA) in BSE/TD-HF
   IBSE                =     0    BSE modus: 0 exact, 1 time-evolution (store matrix), 10 time-evolution (implicit)
   KPOINT              =    -1   0   0   0    k-point index at which BSE equation is solved (and G at which response is eval.)
   LTRIPLET            =     F    triplet instead of singlet excitation (BSE only)
   LRSRPA              =     F    range separated RPA (total - short) in ACFDT
   LTCTC               =     F    use test-charge test-charge for self-energy (with ALGO=QPBSE)
   LTCTE               =     F    use test-charge test-electron dielectric function
   LTETE               =     F    use test-electron test-electron dielectric function
   LFXCEPS             =     F    determine f_xc=epsilon-1/Xi Sharma and Gross kernel
   LFXHEG              =     F    model exchange using f_x(G,k_F) from free electron gas
   NATURALO            =     2    0 natural orbitals, 1 only virtual, 2 only occupied-virtual rotation
   LHOLEGF             =     F    use holes in self-consistent GW 
   L2ORDER             =     F    2nd order terms only
   LDMP1               =     F    first order term in ACFDT routine is calculated
   LMP2LT              =     F    use LT MP2
   LSMP2LT             =     F    use stochastic LT MP2
   LGWLF               =     F    use W potentials for exchange like diagrams
   ENCUTGW             =  80.0    cutoff for response function in eV
   ENCUTGWSOFT         =  80.0    soft cutoff for Coulomb kernel in GW response function in eV
   ENCUTLF             =  80.0    cutoff for local field effects
   LESF_SPLINES        =     F    tricubic splines for electronic structure factor S(q+G)
   LMAXMP2             =    -1    maximum L for one center terms
   SCISSOR             =   0.0    scissor correction
   NOMEGA              =   128    number of frequencies
   NOMEGAR             =   128    number of frequencies along real axis
   NBANDSGW            =    -1    number of bands for which selfenergy shift is calculated
   NBANDSGWLOW         =     1    lowest band included in GW (to exclude core correlation)
   NBANDSO             =    -1    number of bands for electron-hole treatment (occupied)
   NBANDSV             =    -1    number of bands for electron-hole treatment (virtual)
   NELM                =     1    number of iterations in solving QP/BSE equation
   NELMHF              =     1    number of iterations in the inner HF iteration
   DIM                 =     3    dimensionality of system (0=0D molecules, 3=3D)
   IEPSILON            =     4    cartesion direction for which dielectric function is calculated (4=all)
   ANTIRES             =     0    antiresonant part (0) no TDA (1) w=0 exact (2) accurate
   OMEGAMAX            = -30.0    maximum frequency
   OMEGAMIN            = -30.0    minimum frequency
   OMEGATL             =-200.0    maximum frequency of tail
   OMEGAGRID           =     0    grid type (0 default)
   CSHIFT              =  -0.1    complex shift used in evaluation of response functions
   LSELFENERGY         =     F    calculate selfenergy instead of QP shifts
   LSPECTRAL           =     T    use spectral functions                   
   LSPECTRALGW         =     F    use spectral functions to calculate int dz G(w-z) W(z) (more accurate)
   LSINGLES            =     F    calculate the singles contribution to the correlation energy
   LFERMIGW            =     F    update Fermi-energy in the Greens function

   ODDONLYGW           =     F    avoid all even points for polarizability 
   EVENONLYGW          =     F    avoid all odd  points for polarizability 
   NKREDLFX            =     1    NKREDLFY  =   1   NKREDLFZ  =   1

   TELESCOPE           =     0    use telescope k-point sampling
   NTAUPAR             =    -1    number of TAU groups used in imaginary time calculation
   NOMEGAPAR           =    -1    number of OMEGA groups used in imaginary frequency calculation



--------------------------------------------------------------------------------------------------------


 Static calculation
 charge density and potential will be updated during run
 non-spin polarized calculation
 Variant of blocked Davidson
 Davidson routine will perform the subspace rotation
 perform sub-space diagonalisation
    after iterative eigenvector-optimisation
 modified Broyden-mixing scheme, WC =      100.0
 initial mixing is a Kerker type mixing with AMIX =  0.4000 and BMIX =      1.0000
 Hartree-type preconditioning will be used
 using additional bands          568
 reciprocal scheme for non local part
 use partial core corrections
 calculate Harris-corrections to forces 
   (improved forces if not selfconsistent)
 use gradient corrections 
 use of overlap-Matrix (Vanderbilt PP)
 Gauss-broadening in eV      SIGMA  =   0.01


--------------------------------------------------------------------------------------------------------


  energy-cutoff  :      300.00
  volume of cell :      388.50
      direct lattice vectors                 reciprocal lattice vectors
     5.782400000  0.000000000  0.000000000     0.172938572  0.000000000  0.000000000
     0.000000000  5.782400000  0.000000000     0.000000000  0.172938572  0.000000000
     0.000000000  0.000000000 11.619200000     0.000000000  0.000000000  0.086064445

  length of vectors
     5.782400000  5.782400000 11.619200000     0.172938572  0.172938572  0.086064445


 
 old parameters found on file WAVECAR:
  energy-cutoff  :      300.00
  volume of cell :      388.50
      direct lattice vectors                 reciprocal lattice vectors
     5.782400000  0.000000000  0.000000000     0.172938572  0.000000000  0.000000000
     0.000000000  5.782400000  0.000000000     0.000000000  0.172938572  0.000000000
     0.000000000  0.000000000 11.619200000     0.000000000  0.000000000  0.086064445

  length of vectors

 
 k-points in units of 2pi/SCALE and weight: KPOINTS                                 
   0.00000000  0.00000000  0.00000000       0.002
   0.01729386  0.00000000  0.00000000       0.008
   0.03458771  0.00000000  0.00000000       0.008
   0.05188157  0.00000000  0.00000000       0.008
   0.06917543  0.00000000  0.00000000       0.008
   0.08646929  0.00000000  0.00000000       0.004
   0.01729386  0.01729386  0.00000000       0.008
   0.03458771  0.01729386  0.00000000       0.016
   0.05188157  0.01729386  0.00000000       0.016
   0.06917543  0.01729386  0.00000000       0.016
   0.08646929  0.01729386  0.00000000       0.008
   0.03458771  0.03458771  0.00000000       0.008
   0.05188157  0.03458771  0.00000000       0.016
   0.06917543  0.03458771  0.00000000       0.016
   0.08646929  0.03458771  0.00000000       0.008
   0.05188157  0.05188157  0.00000000       0.008
   0.06917543  0.05188157  0.00000000       0.016
   0.08646929  0.05188157  0.00000000       0.008
   0.06917543  0.06917543  0.00000000       0.008
   0.08646929  0.06917543  0.00000000       0.008
   0.08646929  0.08646929  0.00000000       0.002
   0.00000000  0.00000000  0.01721289       0.004
   0.01729386  0.00000000  0.01721289       0.016
   0.03458771  0.00000000  0.01721289       0.016
   0.05188157  0.00000000  0.01721289       0.016
   0.06917543  0.00000000  0.01721289       0.016
   0.08646929  0.00000000  0.01721289       0.008
   0.01729386  0.01729386  0.01721289       0.016
   0.03458771  0.01729386  0.01721289       0.032
   0.05188157  0.01729386  0.01721289       0.032
   0.06917543  0.01729386  0.01721289       0.032
   0.08646929  0.01729386  0.01721289       0.016
   0.03458771  0.03458771  0.01721289       0.016
   0.05188157  0.03458771  0.01721289       0.032
   0.06917543  0.03458771  0.01721289       0.032
   0.08646929  0.03458771  0.01721289       0.016
   0.05188157  0.05188157  0.01721289       0.016
   0.06917543  0.05188157  0.01721289       0.032
   0.08646929  0.05188157  0.01721289       0.016
   0.06917543  0.06917543  0.01721289       0.016
   0.08646929  0.06917543  0.01721289       0.016
   0.08646929  0.08646929  0.01721289       0.004
   0.00000000  0.00000000  0.03442578       0.004
   0.01729386  0.00000000  0.03442578       0.016
   0.03458771  0.00000000  0.03442578       0.016
   0.05188157  0.00000000  0.03442578       0.016
   0.06917543  0.00000000  0.03442578       0.016
   0.08646929  0.00000000  0.03442578       0.008
   0.01729386  0.01729386  0.03442578       0.016
   0.03458771  0.01729386  0.03442578       0.032
   0.05188157  0.01729386  0.03442578       0.032
   0.06917543  0.01729386  0.03442578       0.032
   0.08646929  0.01729386  0.03442578       0.016
   0.03458771  0.03458771  0.03442578       0.016
   0.05188157  0.03458771  0.03442578       0.032
   0.06917543  0.03458771  0.03442578       0.032
   0.08646929  0.03458771  0.03442578       0.016
   0.05188157  0.05188157  0.03442578       0.016
   0.06917543  0.05188157  0.03442578       0.032
   0.08646929  0.05188157  0.03442578       0.016
   0.06917543  0.06917543  0.03442578       0.016
   0.08646929  0.06917543  0.03442578       0.016
   0.08646929  0.08646929  0.03442578       0.004
 
 k-points in reciprocal lattice and weights: KPOINTS                                 
   0.00000000  0.00000000  0.00000000       0.002
   0.10000000  0.00000000  0.00000000       0.008
   0.20000000  0.00000000  0.00000000       0.008
   0.30000000  0.00000000  0.00000000       0.008
   0.40000000  0.00000000  0.00000000       0.008
   0.50000000  0.00000000  0.00000000       0.004
   0.10000000  0.10000000  0.00000000       0.008
   0.20000000  0.10000000  0.00000000       0.016
   0.30000000  0.10000000  0.00000000       0.016
   0.40000000  0.10000000  0.00000000       0.016
   0.50000000  0.10000000  0.00000000       0.008
   0.20000000  0.20000000  0.00000000       0.008
   0.30000000  0.20000000  0.00000000       0.016
   0.40000000  0.20000000  0.00000000       0.016
   0.50000000  0.20000000  0.00000000       0.008
   0.30000000  0.30000000  0.00000000       0.008
   0.40000000  0.30000000  0.00000000       0.016
   0.50000000  0.30000000  0.00000000       0.008
   0.40000000  0.40000000  0.00000000       0.008
   0.50000000  0.40000000  0.00000000       0.008
   0.50000000  0.50000000  0.00000000       0.002
   0.00000000  0.00000000  0.20000000       0.004
   0.10000000  0.00000000  0.20000000       0.016
   0.20000000  0.00000000  0.20000000       0.016
   0.30000000  0.00000000  0.20000000       0.016
   0.40000000  0.00000000  0.20000000       0.016
   0.50000000  0.00000000  0.20000000       0.008
   0.10000000  0.10000000  0.20000000       0.016
   0.20000000  0.10000000  0.20000000       0.032
   0.30000000  0.10000000  0.20000000       0.032
   0.40000000  0.10000000  0.20000000       0.032
   0.50000000  0.10000000  0.20000000       0.016
   0.20000000  0.20000000  0.20000000       0.016
   0.30000000  0.20000000  0.20000000       0.032
   0.40000000  0.20000000  0.20000000       0.032
   0.50000000  0.20000000  0.20000000       0.016
   0.30000000  0.30000000  0.20000000       0.016
   0.40000000  0.30000000  0.20000000       0.032
   0.50000000  0.30000000  0.20000000       0.016
   0.40000000  0.40000000  0.20000000       0.016
   0.50000000  0.40000000  0.20000000       0.016
   0.50000000  0.50000000  0.20000000       0.004
   0.00000000  0.00000000  0.40000000       0.004
   0.10000000  0.00000000  0.40000000       0.016
   0.20000000  0.00000000  0.40000000       0.016
   0.30000000  0.00000000  0.40000000       0.016
   0.40000000  0.00000000  0.40000000       0.016
   0.50000000  0.00000000  0.40000000       0.008
   0.10000000  0.10000000  0.40000000       0.016
   0.20000000  0.10000000  0.40000000       0.032
   0.30000000  0.10000000  0.40000000       0.032
   0.40000000  0.10000000  0.40000000       0.032
   0.50000000  0.10000000  0.40000000       0.016
   0.20000000  0.20000000  0.40000000       0.016
   0.30000000  0.20000000  0.40000000       0.032
   0.40000000  0.20000000  0.40000000       0.032
   0.50000000  0.20000000  0.40000000       0.016
   0.30000000  0.30000000  0.40000000       0.016
   0.40000000  0.30000000  0.40000000       0.032
   0.50000000  0.30000000  0.40000000       0.016
   0.40000000  0.40000000  0.40000000       0.016
   0.50000000  0.40000000  0.40000000       0.016
   0.50000000  0.50000000  0.40000000       0.004
 
 position of ions in fractional coordinates (direct lattice) 
   0.00000000  0.50000000  0.25000000
   0.00000000  0.00000000  0.00000000
   0.50000000  0.00000000  0.75000000
   0.50000000  0.50000000  0.50000000
   0.00000000  0.50000000  0.75000000
   0.00000000  0.00000000  0.50000000
   0.50000000  0.00000000  0.25000000
   0.50000000  0.50000000  0.00000000
   0.75000000  0.26500000  0.37500000
   0.25000000  0.76500000  0.87500000
   0.25000000  0.73500000  0.37500000
   0.75000000  0.23500000  0.87500000
   0.23500000  0.25000000  0.12500000
   0.76500000  0.75000000  0.12500000
   0.73500000  0.75000000  0.62500000
   0.26500000  0.25000000  0.62500000
 
 position of ions in cartesian coordinates  (Angst):
   0.00000000  2.89120000  2.90480000
   0.00000000  0.00000000  0.00000000
   2.89120000  0.00000000  8.71440000
   2.89120000  2.89120000  5.80960000
   0.00000000  2.89120000  8.71440000
   0.00000000  0.00000000  5.80960000
   2.89120000  0.00000000  2.90480000
   2.89120000  2.89120000  0.00000000
   4.33680000  1.53233600  4.35720000
   1.44560000  4.42353600 10.16680000
   1.44560000  4.25006400  4.35720000
   4.33680000  1.35886400 10.16680000
   1.35886400  1.44560000  1.45240000
   4.42353600  4.33680000  1.45240000
   4.25006400  4.33680000  7.26200000
   1.53233600  1.44560000  7.26200000
 


--------------------------------------------------------------------------------------------------------


 k-point   1 :   0.0000 0.0000 0.0000  plane waves:    4581
 k-point   2 :   0.1000 0.0000 0.0000  plane waves:    4599
 k-point   3 :   0.2000 0.0000 0.0000  plane waves:    4576
 k-point   4 :   0.3000 0.0000 0.0000  plane waves:    4594
 k-point   5 :   0.4000 0.0000 0.0000  plane waves:    4578
 k-point   6 :   0.5000 0.0000 0.0000  plane waves:    4576
 k-point   7 :   0.1000 0.1000 0.0000  plane waves:    4589
 k-point   8 :   0.2000 0.1000 0.0000  plane waves:    4571
 k-point   9 :   0.3000 0.1000 0.0000  plane waves:    4581
 k-point  10 :   0.4000 0.1000 0.0000  plane waves:    4589
 k-point  11 :   0.5000 0.1000 0.0000  plane waves:    4594
 k-point  12 :   0.2000 0.2000 0.0000  plane waves:    4593
 k-point  13 :   0.3000 0.2000 0.0000  plane waves:    4584
 k-point  14 :   0.4000 0.2000 0.0000  plane waves:    4585
 k-point  15 :   0.5000 0.2000 0.0000  plane waves:    4594
 k-point  16 :   0.3000 0.3000 0.0000  plane waves:    4578
 k-point  17 :   0.4000 0.3000 0.0000  plane waves:    4599
 k-point  18 :   0.5000 0.3000 0.0000  plane waves:    4594
 k-point  19 :   0.4000 0.4000 0.0000  plane waves:    4584
 k-point  20 :   0.5000 0.4000 0.0000  plane waves:    4584
 k-point  21 :   0.5000 0.5000 0.0000  plane waves:    4608
 k-point  22 :   0.0000 0.0000 0.2000  plane waves:    4589
 k-point  23 :   0.1000 0.0000 0.2000  plane waves:    4587
 k-point  24 :   0.2000 0.0000 0.2000  plane waves:    4588
 k-point  25 :   0.3000 0.0000 0.2000  plane waves:    4589
[...]
     25     -10.5985     -10.8706     -15.5987     -15.2363     -20.5589       0.7508       2.0000       0.7073
     26     -10.5985     -10.8706     -15.5987     -15.2363     -20.5589       0.7508       2.0000       0.7073
     27     -10.5985     -10.8706     -15.5987     -15.2363     -20.5589       0.7508       2.0000       0.7073
     28     -10.5985     -10.8706     -15.5987     -15.2363     -20.5589       0.7508       2.0000       0.7073
     29      -3.5589      -4.6048     -13.3351     -12.0066     -15.1296       0.7874       2.0000       0.0939
     30      -3.5589      -4.6048     -13.3351     -12.0066     -15.1296       0.7874       2.0000       0.0939
     31      -3.5589      -4.6048     -13.3351     -12.0066     -15.1296       0.7874       2.0000       0.0939
     32      -3.5589      -4.6048     -13.3351     -12.0066     -15.1296       0.7874       2.0000       0.0939
     33      -2.2219      -3.3202     -13.1449     -11.7455     -14.8668       0.7849       2.0000       0.0527
     34      -2.2219      -3.3202     -13.1449     -11.7455     -14.8668       0.7849       2.0000       0.0527
     35      -2.2219      -3.3202     -13.1449     -11.7455     -14.8668       0.7849       2.0000       0.0527
     36      -2.2219      -3.3202     -13.1449     -11.7455     -14.8668       0.7849       2.0000       0.0527
     37      -0.6491      -1.3332     -16.6830     -15.7660     -20.2869       0.7461       2.0000       0.0188
     38      -0.6491      -1.3332     -16.6830     -15.7660     -20.2869       0.7461       2.0000       0.0188
     39      -0.6491      -1.3332     -16.6830     -15.7660     -20.2869       0.7461       2.0000       0.0188
     40      -0.6491      -1.3332     -16.6830     -15.7660     -20.2869       0.7461       2.0000       0.0188
     41      -0.3958      -1.0364     -17.1801     -16.3198     -21.0348       0.7447       2.0000       0.0166
     42      -0.3958      -1.0364     -17.1801     -16.3198     -21.0348       0.7447       2.0000       0.0166
     43      -0.3958      -1.0364     -17.1801     -16.3198     -21.0348       0.7447       2.0000       0.0166
     44      -0.3958      -1.0364     -17.1801     -16.3198     -21.0348       0.7447       2.0000       0.0166
     45      -0.2036      -0.8006     -17.7278     -16.9233     -21.8743       0.7422       2.0000       0.0163
     46      -0.2036      -0.8006     -17.7278     -16.9233     -21.8743       0.7422       2.0000       0.0163
     47      -0.2036      -0.8006     -17.7278     -16.9233     -21.8743       0.7422       2.0000       0.0163
     48      -0.2036      -0.8006     -17.7278     -16.9233     -21.8743       0.7422       2.0000       0.0163
     49       0.1301      -0.5710     -17.3682     -16.4477     -20.9447       0.7616       2.0000       0.0061
     50       0.1301      -0.5710     -17.3682     -16.4477     -20.9447       0.7616       2.0000       0.0061
     51       0.1301      -0.5710     -17.3682     -16.4477     -20.9447       0.7616       2.0000       0.0061
     52       0.1301      -0.5710     -17.3682     -16.4477     -20.9447       0.7616       2.0000       0.0061
     53       0.7774       0.5188     -21.6084     -21.2428     -28.4418       0.7074       2.0000       0.0321
     54       0.7774       0.5188     -21.6084     -21.2428     -28.4418       0.7074       2.0000       0.0321
     55       0.7774       0.5188     -21.6084     -21.2428     -28.4418       0.7074       2.0000       0.0321
     56       0.7774       0.5188     -21.6084     -21.2428     -28.4418       0.7074       2.0000       0.0321
     57       1.1633       0.6141     -19.6249     -18.8965     -24.4253       0.7540       2.0000       0.0088
     58       1.1633       0.6141     -19.6249     -18.8965     -24.4253       0.7540       2.0000       0.0088
     59       1.1633       0.6141     -19.6249     -18.8965     -24.4253       0.7540       2.0000       0.0088
     60       1.1633       0.6141     -19.6249     -18.8965     -24.4253       0.7540       2.0000       0.0088
     61       1.6941       0.9881     -18.5283     -17.6157     -22.4133       0.7735       2.0000       0.0027
     62       1.6941       0.9881     -18.5283     -17.6157     -22.4133       0.7735       2.0000       0.0027
     63       1.6941       0.9881     -18.5283     -17.6157     -22.4133       0.7735       2.0000       0.0027
     64       1.6941       0.9881     -18.5283     -17.6157     -22.4133       0.7735       2.0000       0.0027
     65       2.2567       1.4191     -17.8904     -16.8368     -21.0061       0.7949       2.0000      -0.0044
     66       2.2567       1.4191     -17.8904     -16.8368     -21.0061       0.7949       2.0000      -0.0044
     67       2.2567       1.4191     -17.8904     -16.8368     -21.0061       0.7949       2.0000      -0.0044
     68       2.2567       1.4191     -17.8904     -16.8368     -21.0061       0.7949       2.0000      -0.0044
     69       2.4344       1.5970     -18.0150     -16.9641     -21.1315       0.7969       2.0000      -0.0048
     70       2.4344       1.5970     -18.0150     -16.9641     -21.1315       0.7969       2.0000      -0.0048
     71       2.4344       1.5970     -18.0150     -16.9641     -21.1315       0.7969       2.0000      -0.0048
     72       2.4344       1.5970     -18.0150     -16.9641     -21.1315       0.7969       2.0000      -0.0048
     73       5.7832       7.5170      -8.8738     -10.8697      -7.0080       0.8687       0.0000      -0.0439
     74       5.7832       7.5170      -8.8738     -10.8697      -7.0080       0.8687       0.0000      -0.0439
     75       5.7832       7.5170      -8.8738     -10.8697      -7.0080       0.8687       0.0000      -0.0439
     76       5.7832       7.5170      -8.8738     -10.8697      -7.0080       0.8687       0.0000      -0.0439
     77       7.4013       8.9497      -7.5254      -9.3026      -5.1349       0.8712       0.0000      -0.0378
     78       7.4013       8.9497      -7.5254      -9.3026      -5.1349       0.8712       0.0000      -0.0378
     79       7.4013       8.9497      -7.5254      -9.3026      -5.1349       0.8712       0.0000      -0.0378
     80       7.4013       8.9497      -7.5254      -9.3026      -5.1349       0.8712       0.0000      -0.0378
     81       8.8298      10.2311      -7.5882      -9.2219      -5.1409       0.8578       0.0000      -0.0417
     82       8.8298      10.2311      -7.5882      -9.2219      -5.1409       0.8578       0.0000      -0.0417
     83       8.8298      10.2311      -7.5882      -9.2219      -5.1409       0.8578       0.0000      -0.0417
     84       8.8298      10.2311      -7.5882      -9.2219      -5.1409       0.8578       0.0000      -0.0417
     85       9.2865      10.6576      -7.5083      -9.1137      -4.9607       0.8540       0.0000      -0.0471
     86       9.2865      10.6576      -7.5083      -9.1137      -4.9607       0.8540       0.0000      -0.0471
     87       9.2865      10.6576      -7.5083      -9.1137      -4.9607       0.8540       0.0000      -0.0471
     88       9.2865      10.6576      -7.5083      -9.1137      -4.9607       0.8540       0.0000      -0.0471
     89      10.0977      11.4620      -7.4436      -9.0454      -4.7493       0.8517       0.0000      -0.0528
     90      10.0977      11.4620      -7.4436      -9.0454      -4.7493       0.8517       0.0000      -0.0528
     91      10.0977      11.4620      -7.4436      -9.0454      -4.7493       0.8517       0.0000      -0.0528
     92      10.0977      11.4620      -7.4436      -9.0454      -4.7493       0.8517       0.0000      -0.0528
     93      10.3990      11.7344      -7.3829      -8.9517      -4.6630       0.8512       0.0000      -0.0578
     94      10.3990      11.7344      -7.3829      -8.9517      -4.6630       0.8512       0.0000      -0.0578
     95      10.3990      11.7344      -7.3829      -8.9517      -4.6630       0.8512       0.0000      -0.0578
     96      10.3990      11.7344      -7.3829      -8.9517      -4.6630       0.8512       0.0000      -0.0578
     97      11.3484      12.6557      -7.6104      -9.1631      -4.7253       0.8420       0.0000      -0.0908
     98      11.3484      12.6557      -7.6104      -9.1631      -4.7253       0.8420       0.0000      -0.0908
     99      11.3484      12.6557      -7.6104      -9.1631      -4.7253       0.8420       0.0000      -0.0908
    100      11.3484      12.6557      -7.6104      -9.1631      -4.7253       0.8420       0.0000      -0.0908
    101      11.8218      13.0749      -7.4651      -8.9676      -4.4132       0.8340       0.0000      -0.1013
    102      11.8218      13.0749      -7.4651      -8.9676      -4.4132       0.8340       0.0000      -0.1013
    103      11.8218      13.0749      -7.4651      -8.9676      -4.4132       0.8340       0.0000      -0.1013
    104      11.8218      13.0749      -7.4651      -8.9676      -4.4132       0.8340       0.0000      -0.1013
    105      13.9627      15.1513      -7.4009      -8.8059      -4.1211       0.8460       0.0000      -0.1760
    106      13.9627      15.1513      -7.4009      -8.8059      -4.1211       0.8460       0.0000      -0.1760
    107      13.9627      15.1513      -7.4009      -8.8059      -4.1211       0.8460       0.0000      -0.1760
    108      13.9627      15.1513      -7.4009      -8.8059      -4.1211       0.8460       0.0000      -0.1760
    109      14.4518      15.5133      -6.4940      -7.7601      -3.0233       0.8384       0.0000      -0.1832
    110      14.4518      15.5133      -6.4940      -7.7601      -3.0233       0.8384       0.0000      -0.1832
    111      14.4518      15.5133      -6.4940      -7.7601      -3.0233       0.8384       0.0000      -0.1832
    112      14.4518      15.5133      -6.4940      -7.7601      -3.0233       0.8384       0.0000      -0.1832
    113      14.6323      15.7561      -7.0960      -8.4350      -3.6356       0.8393       0.0000      -0.2103
    114      14.6323      15.7561      -7.0960      -8.4350      -3.6356       0.8393       0.0000      -0.2103
    115      14.6323      15.7561      -7.0960      -8.4350      -3.6356       0.8393       0.0000      -0.2103
    116      14.6323      15.7561      -7.0960      -8.4350      -3.6356       0.8393       0.0000      -0.2103
    117      15.1766      16.2494      -6.9135      -8.1950      -3.4004       0.8371       0.0000      -0.2164
    118      15.1766      16.2494      -6.9135      -8.1950      -3.4004       0.8371       0.0000      -0.2164
    119      15.1766      16.2494      -6.9135      -8.1950      -3.4004       0.8371       0.0000      -0.2164
    120      15.1766      16.2494      -6.9135      -8.1950      -3.4004       0.8371       0.0000      -0.2164
    121      16.3502      17.4935      -7.2774      -8.6431      -3.5057       0.8371       0.0000      -0.3130
    122      16.3502      17.4935      -7.2774      -8.6431      -3.5057       0.8371       0.0000      -0.3130
    123      16.3502      17.4935      -7.2774      -8.6431      -3.5057       0.8371       0.0000      -0.3130
    124      16.3502      17.4935      -7.2774      -8.6431      -3.5057       0.8371       0.0000      -0.3130
    125      16.3955      17.4991      -7.2309      -8.5527      -3.4896       0.8349       0.0000      -0.3114
    126      16.3955      17.4991      -7.2309      -8.5527      -3.4896       0.8349       0.0000      -0.3114
    127      16.3955      17.4991      -7.2309      -8.5527      -3.4896       0.8349       0.0000      -0.3114
    128      16.3955      17.4991      -7.2309      -8.5527      -3.4896       0.8349       0.0000      -0.3114
    129      17.2690      18.4892      -8.1802      -9.6331      -4.2364       0.8399       0.0000      -0.4378
    130      17.2690      18.4892      -8.1802      -9.6331      -4.2364       0.8399       0.0000      -0.4378
    131      17.2690      18.4892      -8.1802      -9.6331      -4.2364       0.8399       0.0000      -0.4378
    132      17.2690      18.4892      -8.1802      -9.6331      -4.2364       0.8399       0.0000      -0.4378
    133      17.6744      18.8455      -8.1361      -9.5326      -4.2135       0.8386       0.0000      -0.4370
    134      17.6744      18.8455      -8.1361      -9.5326      -4.2135       0.8386       0.0000      -0.4370
    135      17.6744      18.8455      -8.1361      -9.5326      -4.2135       0.8386       0.0000      -0.4370
    136      17.6744      18.8455      -8.1361      -9.5326      -4.2135       0.8386       0.0000      -0.4370
    137      19.5610      20.6631      -7.6064      -8.8979      -3.3872       0.8532       0.0000      -0.6238
    138      19.5610      20.6631      -7.6064      -8.8979      -3.3872       0.8532       0.0000      -0.6238
    139      19.5610      20.6631      -7.6064      -8.8979      -3.3872       0.8532       0.0000      -0.6238
    140      19.5610      20.6631      -7.6064      -8.8979      -3.3872       0.8532       0.0000      -0.6238
    141      19.6986      20.7655      -7.7330      -8.9848      -3.5288       0.8522       0.0000      -0.6157
    142      19.6986      20.7655      -7.7330      -8.9848      -3.5288       0.8522       0.0000      -0.6157
    143      19.6986      20.7655      -7.7330      -8.9848      -3.5288       0.8522       0.0000      -0.6157
    144      19.6986      20.7655      -7.7330      -8.9848      -3.5288       0.8522       0.0000      -0.6157
    145      20.4680      21.5338      -7.2173      -8.4733      -3.0175       0.8485       0.0000      -0.6153
    146      20.4680      21.5338      -7.2173      -8.4733      -3.0175       0.8485       0.0000      -0.6153
    147      20.4680      21.5338      -7.2173      -8.4733      -3.0175       0.8485       0.0000      -0.6153
    148      20.4680      21.5338      -7.2173      -8.4733      -3.0175       0.8485       0.0000      -0.6153
    149      21.0150      22.0975      -7.7180      -8.9865      -3.3696       0.8534       0.0000      -0.7217
    150      21.0150      22.0975      -7.7180      -8.9865      -3.3696       0.8534       0.0000      -0.7217
    151      21.0150      22.0975      -7.7180      -8.9865      -3.3696       0.8534       0.0000      -0.7217
    152      21.0150      22.0975      -7.7180      -8.9865      -3.3696       0.8534       0.0000      -0.7217
    153      21.1255      22.2045      -7.4294      -8.6892      -3.1569       0.8565       0.0000      -0.7341
    154      21.1255      22.2045      -7.4294      -8.6892      -3.1569       0.8565       0.0000      -0.7341
    155      21.1255      22.2045      -7.4294      -8.6892      -3.1569       0.8565       0.0000      -0.7341
    156      21.1255      22.2045      -7.4294      -8.6892      -3.1569       0.8565       0.0000      -0.7341
    157      22.2985      23.3186      -6.8984      -8.0989      -2.6409       0.8497       0.0000      -0.7334
    158      22.2985      23.3186      -6.8984      -8.0989      -2.6409       0.8497       0.0000      -0.7334
    159      22.2985      23.3186      -6.8984      -8.0989      -2.6409       0.8497       0.0000      -0.7334
    160      22.2985      23.3186      -6.8984      -8.0989      -2.6409       0.8497       0.0000      -0.7334


--------------------------------------------------------------------------------------------------------


  QP_SHIFT:  cpu time   34.2302: real time   34.2324
    GWLOOP:  cpu time 5170.9960: real time 5171.3497
  LATTYP: Found a simple tetragonal cell.
 ALAT       =     5.7824000000
 C/A-ratio  =     2.0094078583
  
  Lattice vectors:
  
 A1 = (   5.7824000000,   0.0000000000,   0.0000000000)
 A2 = (   0.0000000000,   5.7824000000,   0.0000000000)
 A3 = (   0.0000000000,   0.0000000000,  11.6192000000)


Analysis of symmetry for initial positions (statically):
=====================================================================
 Subroutine PRICEL returns following result:
 
  LATTYP: Found a body centered tetragonal cell.
 ALAT       =     5.7824000000
 C/A-ratio  =     2.0094078583
  
  Lattice vectors:
  
 A1 = (   2.8912000000,  -2.8912000000,   5.8096000000)
 A2 = (  -2.8912000000,   2.8912000000,   5.8096000000)
 A3 = (  -2.8912000000,  -2.8912000000,  -5.8096000000)
 
   2 primitive cells build up your supercell.
 

 Routine SETGRP: Setting up the symmetry group for a 
 simple tetragonal supercell.


 Subroutine GETGRP returns: Found  8 space group operations
 (whereof  4 operations were pure point group operations)
 out of a pool of 16 trial point group operations.


The static configuration has the point symmetry S_4 .
 The point group associated with its full space group is D_2d.


Analysis of symmetry for dynamics (positions and initial velocities):
=====================================================================
 Subroutine PRICEL returns following result:
 
  LATTYP: Found a body centered tetragonal cell.
 ALAT       =     5.7824000000
 C/A-ratio  =     2.0094078583
  
  Lattice vectors:
  
 A1 = (   2.8912000000,  -2.8912000000,   5.8096000000)
 A2 = (  -2.8912000000,   2.8912000000,   5.8096000000)
 A3 = (  -2.8912000000,  -2.8912000000,  -5.8096000000)
 
   2 primitive cells build up your supercell.
 

 Routine SETGRP: Setting up the symmetry group for a 
 simple tetragonal supercell.


 Subroutine GETGRP returns: Found  8 space group operations
 (whereof  4 operations were pure point group operations)
 out of a pool of 16 trial point group operations.


The dynamic configuration has the point symmetry S_4 .
 The point group associated with its full space group is D_2d.


 Subroutine INISYM returns: Found  8 space group operations
 (whereof  4 operations are pure point group operations),
 and found     2 'primitive' translations

 writing wavefunctions
    --------------------------------------------
   GWTOTAL:  cpu time 5180.2386: real time 5215.7754
    4ORBIT:  cpu time    0.0000: real time    0.0000
 


 total charge     
 
# of ion       s       p       d       tot
------------------------------------------
    1        0.318   0.298   9.381   9.997
    2        0.318   0.298   9.381   9.997
    3        0.318   0.298   9.381   9.997
    4        0.318   0.298   9.381   9.997
    5        0.814   0.725   9.931  11.470
    6        0.814   0.725   9.931  11.470
    7        0.814   0.725   9.931  11.470
    8        0.814   0.725   9.931  11.470
    9        1.446   2.431   0.039   3.916
   10        1.446   2.431   0.039   3.916
   11        1.446   2.431   0.039   3.916
   12        1.446   2.431   0.039   3.916
   13        1.446   2.431   0.039   3.916
   14        1.446   2.431   0.039   3.916
   15        1.446   2.431   0.039   3.916
   16        1.446   2.431   0.039   3.916
--------------------------------------------------
tot         16.094  23.544  77.556 117.194
 

 total amount of memory used by VASP MPI-rank0   462426. kBytes
=======================================================================

   base      :      30000. kBytes
   nonl-proj :     127030. kBytes
   fftplans  :       7130. kBytes
   grid      :       6909. kBytes
   one-center:        248. kBytes
   HF        :        388. kBytes
   nonlr-proj:       3684. kBytes
   wavefun   :     196761. kBytes
   fock_wrk  :      90276. kBytes
   2eintegral:          0. kBytes
   response  :          0. kBytes
 
  
  
 General timing and accounting informations for this job:
 ========================================================
  
                  Total CPU time used (sec):     5202.803
                            User time (sec):     5178.750
                          System time (sec):       24.053
                         Elapsed time (sec):     5239.143
  
                   Maximum memory used (kb):     4102904.
                   Average memory used (kb):           0.
  
                          Minor page faults:       120082
                          Major page faults:            2
                 Voluntary context switches:        52107
