 argument  1 = dft.nw
  NWChem w/ OpenMP: maximum threads =    1
                                         
                                         
 
 
             Northwest Computational Chemistry Package (NWChem) 7.0.0
             --------------------------------------------------------
 
 
                    Environmental Molecular Sciences Laboratory
                       Pacific Northwest National Laboratory
                                Richland, WA 99352
 
                              Copyright (c) 1994-2019
                       Pacific Northwest National Laboratory
                            Battelle Memorial Institute
 
             NWChem is an open-source computational chemistry package
                        distributed under the terms of the
                      Educational Community License (ECL) 2.0
             A copy of the license is included with this distribution
                              in the LICENSE.TXT file
 
                                  ACKNOWLEDGMENT
                                  --------------

            This software and its documentation were developed at the
            EMSL at Pacific Northwest National Laboratory, a multiprogram
            national laboratory, operated for the U.S. Department of Energy
            by Battelle under Contract Number DE-AC05-76RL01830. Support
            for this work was provided by the Department of Energy Office
            of Biological and Environmental Research, Office of Basic
            Energy Sciences, and the Office of Advanced Scientific Computing.


           Job information
           ---------------

    hostname        = r2i2n5
    program         = /nopt/nrel/apps/nwchem/7.0.0/bin/nwchem
    date            = Wed Sep 16 17:49:59 2020

    compiled        = Fri_Sep_11_14:52:53_2020
    source          = /nopt/nrel/apps/nwchem/dist/nwchem-7.0.0
    nwchem branch   = 7.0.0
    nwchem revision = 2c9a1c7c
    ga revision     = 5.7.1
    use scalapack   = T
    input           = dft.nw
    prefix          = test2.
    data base       = ./test2.db
    status          = startup
    nproc           =       70
    time left       =     -1s



           Memory information
           ------------------

    heap     =   13107196 doubles =    100.0 Mbytes
    stack    =   13107201 doubles =    100.0 Mbytes
    global   =   26214400 doubles =    200.0 Mbytes (distinct from heap & stack)
    total    =   52428797 doubles =    400.0 Mbytes
    verify   = yes
    hardfail = no 


           Directory information
           ---------------------
 
  0 permanent = .
  0 scratch   = /tmp/scratch
 
 
 
 
                                NWChem Input Module
                                -------------------
 
 
                                NREL DFT Benchmark
                                ------------------

 Scaling coordinates for geometry "geometry" by  1.889725989
 (inverse scale =  0.529177249)

 C1  symmetry detected

          ------
          auto-z
          ------
  autoz: The atoms group into disjoint clusters
 cluster   1:    1    2    3    4    5    6    7   13   14   15   16 
                17   18   19   20 
 cluster   2:    8    9   10   11   12   21   22   23   24   25 
 cluster   3:   26   27   28   29   30   31   32   33   34   35 
 Connecting clusters   1   2 via atoms    1   25 r = 1.77
 Connecting clusters   1   3 via atoms   18   27 r = 2.29
 Connecting clusters   2   3 via atoms    8   26 r = 1.74
  autoz: regenerating connections with new bonds
  no constraints, skipping   0.000000000000000E+000
  no constraints, skipping   0.000000000000000E+000
 
 
                             Geometry "geometry" -> ""
                             -------------------------
 
 Output coordinates in angstroms (scale by  1.889725989 to convert to a.u.)
 
  No.       Tag          Charge          X              Y              Z
 ---- ---------------- ---------- -------------- -------------- --------------
    1 C                    6.0000    -0.91597399    -1.47907678     0.09921469
    2 N                    7.0000    -1.26090397    -2.68743430     0.62837096
    3 C                    6.0000    -2.52849104    -3.09232333     0.22954558
    4 C                    6.0000    -3.00143531    -2.10827182    -0.57682756
    5 N                    7.0000    -2.00844633    -1.13941326    -0.63919016
    6 C                    6.0000    -0.39449629    -3.45025396     1.51441363
    7 C                    6.0000    -2.11319771     0.08702158    -1.42612280
    8 O                    8.0000     1.40887649     0.03865447     0.37570430
    9 C                    6.0000     2.35323079    -0.51311871    -0.52895934
   10 C                    6.0000     3.50586840    -1.14854658     0.24089956
   11 O                    8.0000     4.43283800    -1.66578306    -0.70859682
   12 H                    1.0000     1.88562991    -1.26986398    -1.17594979
   13 H                    1.0000    -2.97647844    -4.02036888     0.55196611
   14 H                    1.0000    -3.94230229    -2.01310633    -1.09800053
   15 H                    1.0000     0.51117138    -2.86691852     1.68282933
   16 H                    1.0000    -0.88927984    -3.63175129     2.47423336
   17 H                    1.0000    -0.12748694    -4.41163721     1.06286022
   18 H                    1.0000    -1.32458615     0.78188908    -1.12676762
   19 H                    1.0000    -2.01656127    -0.13577976    -2.49431283
   20 H                    1.0000    -3.08731692     0.55335629    -1.24862399
   21 H                    1.0000     3.11015321    -1.94262902     0.89682775
   22 H                    1.0000     3.96424115    -0.38513612     0.88827066
   23 H                    1.0000     2.75023043     0.27697285    -1.17919992
   24 H                    1.0000     5.21087128    -1.97959562    -0.22507832
   25 H                    1.0000     0.56533926    -0.53244967     0.33614719
   26 H                    1.0000     0.75309752     1.54542914    -0.20463782
   27 O                    8.0000     0.27030007     2.32479154    -0.57677988
   28 C                    6.0000     0.03743202     3.23885346     0.47809910
   29 C                    6.0000    -0.55418017     4.50309152    -0.12567312
   30 H                    1.0000    -0.66488410     2.84178036     1.22949859
   31 H                    1.0000     0.96714295     3.49947303     1.00713087
   32 O                    8.0000    -0.82041612     5.40994509     0.94043501
   33 H                    1.0000     0.16116313     4.92128764    -0.85050435
   34 H                    1.0000    -1.47193974     4.24180934    -0.67674841
   35 H                    1.0000    -1.15808018     6.23005503     0.55215461
 
      Atomic Mass 
      ----------- 
 
      C                 12.000000
      N                 14.003070
      O                 15.994910
      H                  1.007825
 

 Effective nuclear repulsion energy (a.u.)    1021.5919040830

            Nuclear Dipole moment (a.u.) 
            ----------------------------
        X                 Y               Z
 ---------------- ---------------- ----------------
     0.0000000000     0.0000000000     0.0000000000
 


                                Z-matrix (autoz)
                                -------- 

 Units are Angstrom for bonds and degrees for angles
 
      Type          Name      I     J     K     L     M      Value
      ----------- --------  ----- ----- ----- ----- ----- ----------
    1 Stretch                  1    25                       1.77385
    2 Stretch                  1     2                       1.36349
    3 Stretch                  1     5                       1.36166
    4 Stretch                  2     3                       1.38916
    5 Stretch                  2     6                       1.45521
    6 Stretch                  3     4                       1.35730
    7 Stretch                  3    13                       1.07978
    8 Stretch                  4     5                       1.38874
    9 Stretch                  4    14                       1.07977
   10 Stretch                  5     7                       1.46095
   11 Stretch                  6    15                       1.09036
   12 Stretch                  6    16                       1.09499
   13 Stretch                  6    17                       1.09520
   14 Stretch                  7    18                       1.09287
   15 Stretch                  7    19                       1.09545
   16 Stretch                  7    20                       1.09448
   17 Stretch                  8    26                       1.74276
   18 Stretch                  8     9                       1.41939
   19 Stretch                  8    25                       1.01945
   20 Stretch                  9    10                       1.52480
   21 Stretch                  9    12                       1.09996
   22 Stretch                  9    23                       1.09757
   23 Stretch                 10    11                       1.42420
   24 Stretch                 10    21                       1.10336
   25 Stretch                 10    22                       1.10090
   26 Stretch                 11    24                       0.96830
   27 Stretch                 18    27                       2.28620
   28 Stretch                 26    27                       0.98944
   29 Stretch                 27    28                       1.41510
   30 Stretch                 28    29                       1.52080
   31 Stretch                 28    30                       1.10250
   32 Stretch                 28    31                       1.10098
   33 Stretch                 29    32                       1.42473
   34 Stretch                 29    33                       1.10090
   35 Stretch                 29    34                       1.10192
   36 Stretch                 32    35                       0.96817
   37 Bend                     1     8    26                97.10967
   38 Bend                     1     8     9               106.24549
   39 Bend                     1     2     3               112.19234
   40 Bend                     1     2     6               123.38340
   41 Bend                     1     5     4               112.04253
   42 Bend                     1     5     7               123.98881
   43 Bend                     2     1    25               129.22438
   44 Bend                     2     1     5               103.21211
   45 Bend                     2     3     4               106.09328
   46 Bend                     2     3    13               122.91254
   47 Bend                     2     6    15               107.94706
   48 Bend                     2     6    16               110.58342
   49 Bend                     2     6    17               110.74843
   50 Bend                     3     2     6               124.42316
   51 Bend                     3     4     5               106.45921
   52 Bend                     3     4    14               130.86439
   53 Bend                     4     3    13               130.99242
   54 Bend                     4     5     7               123.95787
   55 Bend                     5     1    25               127.53971
   56 Bend                     5     4    14               122.67563
   57 Bend                     5     7    18               109.54050
   58 Bend                     5     7    19               110.37577
   59 Bend                     5     7    20               109.52052
   60 Bend                     7    27    26                85.24228
   61 Bend                     7    27    28               119.94959
   62 Bend                     8    26    27               171.84129
   63 Bend                     8     9    10               110.06804
   64 Bend                     8     9    12               111.06955
   65 Bend                     8     9    23               109.78009
   66 Bend                     8     1     2               130.87436
   67 Bend                     8     1     5               125.91349
   68 Bend                     9     8    26               111.97556
   69 Bend                     9     8    25               107.93941
   70 Bend                     9    10    11               107.86353
   71 Bend                     9    10    21               109.20546
   72 Bend                     9    10    22               108.82360
   73 Bend                    10     9    12               109.36744
   74 Bend                    10     9    23               109.00644
   75 Bend                    10    11    24               107.92481
   76 Bend                    11    10    21               111.61633
   77 Bend                    11    10    22               111.89337
   78 Bend                    12     9    23               107.48996
   79 Bend                    15     6    16               109.18427
   80 Bend                    15     6    17               109.31784
   81 Bend                    16     6    17               109.03044
   82 Bend                    18    27    26                84.22024
   83 Bend                    18    27    28               120.03033
   84 Bend                    18     7    19               109.43651
   85 Bend                    18     7    20               109.08142
   86 Bend                    19     7    20               108.86357
   87 Bend                    21    10    22               107.38638
   88 Bend                    25     8    26                99.21112
   89 Bend                    26    27    28               107.98182
   90 Bend                    27     7     5               111.72199
   91 Bend                    27     7    19               108.52261
   92 Bend                    27     7    20               107.75678
   93 Bend                    27    28    29               107.76001
   94 Bend                    27    28    30               112.34856
   95 Bend                    27    28    31               111.84741
   96 Bend                    28    29    32               107.74282
   97 Bend                    28    29    33               108.92916
   98 Bend                    28    29    34               108.99164
   99 Bend                    29    28    30               108.79385
  100 Bend                    29    28    31               108.81315
  101 Bend                    29    32    35               107.71268
  102 Bend                    30    28    31               107.19904
  103 Bend                    32    29    33               111.85787
  104 Bend                    32    29    34               111.68543
  105 Bend                    33    29    34               107.57702
  106 Torsion                  1     2     3     4          -0.05447
  107 Torsion                  1     2     3    13        -179.62003
  108 Torsion                  1     2     6    15           2.07636
  109 Torsion                  1     2     6    16         121.45689
  110 Torsion                  1     2     6    17        -117.56360
  111 Torsion                  1     5     4     3           0.21532
  112 Torsion                  1     5     4    14         179.92739
  113 Torsion                  1     5     7    18         -14.68630
  114 Torsion                  1     5     7    19         105.87684
  115 Torsion                  1     5     7    20        -134.28156
  116 Torsion                  2     1     8    26        -163.45557
  117 Torsion                  2     1     8     9          81.13153
  118 Torsion                  1     2    25     8        -168.83074
  119 Torsion                  2     1     5     4          -0.23875
  120 Torsion                  2     1     5     7        -179.08330
  121 Torsion                  2     3     4     5          -0.09313
  122 Torsion                  2     3     4    14        -179.77266
  123 Torsion                  3     2     1    25         178.48433
  124 Torsion                  3     2     1     5           0.17787
  125 Torsion                  3     2     6    15        -177.51212
  126 Torsion                  3     2     6    16         -58.13159
  127 Torsion                  3     2     6    17          62.84792
  128 Torsion                  3     4     5     7         179.06029
  129 Torsion                  4     3     2     6         179.57441
  130 Torsion                  4     5     1    25        -178.58421
  131 Torsion                  4     5     7    18         166.60492
  132 Torsion                  4     5     7    19         -72.83193
  133 Torsion                  4     5     7    20          47.00967
  134 Torsion                  5     1     8    26          16.45727
  135 Torsion                  5     1     8     9         -98.95563
  136 Torsion                  1     5    25     8         172.27439
  137 Torsion                  5     1     2     6        -179.45552
  138 Torsion                  5     4     3    13         179.42367
  139 Torsion                  5     7    27    26          20.32968
  140 Torsion                  5     7    27    28         -87.70362
  141 Torsion                  7     5    18    27         179.36335
  142 Torsion                  6     2     1    25          -1.14905
  143 Torsion                  6     2     3    13           0.00885
  144 Torsion                  7     5     1    25           2.57123
  145 Torsion                  7     5     4    14          -1.22763
  146 Torsion                  8    26    27    18          -0.18812
  147 Torsion                  8    26    27    28         119.54724
  148 Torsion                  8     9    10    11        -179.05695
  149 Torsion                  8     9    10    21          59.46800
  150 Torsion                  8     9    10    22         -57.47157
  151 Torsion                  9     8    26    27          99.05120
  152 Torsion                  1    25     9     8         172.98675
  153 Torsion                  9    10    11    24         173.71790
  154 Torsion                 10     9     8    26         141.79526
  155 Torsion                 10     9     8    25        -110.02021
  156 Torsion                 11    10     9    12          58.65939
  157 Torsion                 11    10     9    23         -58.59977
  158 Torsion                 12     9     8    26         -96.93307
  159 Torsion                 12     9     8    25          11.25146
  160 Torsion                 12     9    10    21         -62.81566
  161 Torsion                 12     9    10    22        -179.75522
  162 Torsion                 13     3     4    14          -0.25585
  163 Torsion                 18    27    28    29         -92.88362
  164 Torsion                 18    27    28    30          26.94708
  165 Torsion                 18    27    28    31         147.56266
  166 Torsion                 19     7    27    26        -101.59066
  167 Torsion                 19     7    27    28         150.37604
  168 Torsion                  7    19    18    27        -175.04791
  169 Torsion                 20     7    27    26         140.67808
  170 Torsion                 20     7    27    28          32.64478
  171 Torsion                  7    20    18    27         175.72562
  172 Torsion                 21    10     9    23         179.92518
  173 Torsion                 21    10    11    24         -66.31690
  174 Torsion                 22    10     9    23          62.98561
  175 Torsion                 22    10    11    24          54.05714
  176 Torsion                 23     9     8    26          21.80557
  177 Torsion                 23     9     8    25         129.99011
  178 Torsion                 25     8    26    27         -14.64707
  179 Torsion                  1    25    26     8        -174.47325
  180 Torsion                  7    18    26    27         177.91718
  181 Torsion                 26    27    28    29         173.37081
  182 Torsion                 26    27    28    30         -66.79850
  183 Torsion                 26    27    28    31          53.81709
  184 Torsion                 27    28    29    32         178.53313
  185 Torsion                 27    28    29    33         -59.93468
  186 Torsion                 27    28    29    34          57.17277
  187 Torsion                  7    18    28    27        -171.58085
  188 Torsion                 28    29    32    35         177.38833
  189 Torsion                 30    28    29    32          56.47674
  190 Torsion                 30    28    29    33         178.00893
  191 Torsion                 30    28    29    34         -64.88362
  192 Torsion                 31    28    29    32         -60.00492
  193 Torsion                 31    28    29    33          61.52727
  194 Torsion                 31    28    29    34         178.63472
  195 Torsion                 33    29    32    35          57.69656
  196 Torsion                 34    29    32    35         -62.94577
 
 
            XYZ format geometry
            -------------------
    35
 geometry
 C                    -0.91597399    -1.47907678     0.09921469
 N                    -1.26090397    -2.68743430     0.62837096
 C                    -2.52849104    -3.09232333     0.22954558
 C                    -3.00143531    -2.10827182    -0.57682756
 N                    -2.00844633    -1.13941326    -0.63919016
 C                    -0.39449629    -3.45025396     1.51441363
 C                    -2.11319771     0.08702158    -1.42612280
 O                     1.40887649     0.03865447     0.37570430
 C                     2.35323079    -0.51311871    -0.52895934
 C                     3.50586840    -1.14854658     0.24089956
 O                     4.43283800    -1.66578306    -0.70859682
 H                     1.88562991    -1.26986398    -1.17594979
 H                    -2.97647844    -4.02036888     0.55196611
 H                    -3.94230229    -2.01310633    -1.09800053
 H                     0.51117138    -2.86691852     1.68282933
 H                    -0.88927984    -3.63175129     2.47423336
 H                    -0.12748694    -4.41163721     1.06286022
 H                    -1.32458615     0.78188908    -1.12676762
 H                    -2.01656127    -0.13577976    -2.49431283
 H                    -3.08731692     0.55335629    -1.24862399
 H                     3.11015321    -1.94262902     0.89682775
 H                     3.96424115    -0.38513612     0.88827066
 H                     2.75023043     0.27697285    -1.17919992
 H                     5.21087128    -1.97959562    -0.22507832
 H                     0.56533926    -0.53244967     0.33614719
 H                     0.75309752     1.54542914    -0.20463782
 O                     0.27030007     2.32479154    -0.57677988
 C                     0.03743202     3.23885346     0.47809910
 C                    -0.55418017     4.50309152    -0.12567312
 H                    -0.66488410     2.84178036     1.22949859
 H                     0.96714295     3.49947303     1.00713087
 O                    -0.82041612     5.40994509     0.94043501
 H                     0.16116313     4.92128764    -0.85050435
 H                    -1.47193974     4.24180934    -0.67674841
 H                    -1.15808018     6.23005503     0.55215461
 
 ==============================================================================
                                internuclear distances
 ------------------------------------------------------------------------------
       center one      |      center two      | atomic units |  angstroms
 ------------------------------------------------------------------------------
    2 N                |   1 C                |     2.57663  |     1.36349
    3 C                |   2 N                |     2.62514  |     1.38916
    4 C                |   3 C                |     2.56493  |     1.35730
    5 N                |   1 C                |     2.57316  |     1.36166
    5 N                |   4 C                |     2.62434  |     1.38874
    6 C                |   2 N                |     2.74994  |     1.45521
    7 C                |   5 N                |     2.76080  |     1.46095
    9 C                |   8 O                |     2.68226  |     1.41939
   10 C                |   9 C                |     2.88146  |     1.52480
   11 O                |  10 C                |     2.69135  |     1.42420
   12 H                |   9 C                |     2.07862  |     1.09996
   13 H                |   3 C                |     2.04048  |     1.07978
   14 H                |   4 C                |     2.04047  |     1.07977
   15 H                |   6 C                |     2.06048  |     1.09036
   16 H                |   6 C                |     2.06923  |     1.09499
   17 H                |   6 C                |     2.06962  |     1.09520
   18 H                |   7 C                |     2.06522  |     1.09287
   19 H                |   7 C                |     2.07010  |     1.09545
   20 H                |   7 C                |     2.06826  |     1.09448
   21 H                |  10 C                |     2.08504  |     1.10336
   22 H                |  10 C                |     2.08041  |     1.10090
   23 H                |   9 C                |     2.07411  |     1.09757
   24 H                |  11 O                |     1.82982  |     0.96830
   25 H                |   8 O                |     1.92648  |     1.01945
   27 O                |  26 H                |     1.86977  |     0.98944
   28 C                |  27 O                |     2.67415  |     1.41510
   29 C                |  28 C                |     2.87390  |     1.52080
   30 H                |  28 C                |     2.08343  |     1.10250
   31 H                |  28 C                |     2.08055  |     1.10098
   32 O                |  29 C                |     2.69235  |     1.42473
   33 H                |  29 C                |     2.08040  |     1.10090
   34 H                |  29 C                |     2.08233  |     1.10192
   35 H                |  32 O                |     1.82958  |     0.96817
 ------------------------------------------------------------------------------
                         number of included internuclear distances:         33
 ==============================================================================



 ==============================================================================
                                 internuclear angles
 ------------------------------------------------------------------------------
        center 1       |       center 2       |       center 3       |  degrees
 ------------------------------------------------------------------------------
    2 N                |   1 C                |   5 N                |   103.21
    1 C                |   2 N                |   3 C                |   112.19
    1 C                |   2 N                |   6 C                |   123.38
    3 C                |   2 N                |   6 C                |   124.42
    2 N                |   3 C                |   4 C                |   106.09
    2 N                |   3 C                |  13 H                |   122.91
    4 C                |   3 C                |  13 H                |   130.99
    3 C                |   4 C                |   5 N                |   106.46
    3 C                |   4 C                |  14 H                |   130.86
    5 N                |   4 C                |  14 H                |   122.68
    1 C                |   5 N                |   4 C                |   112.04
    1 C                |   5 N                |   7 C                |   123.99
    4 C                |   5 N                |   7 C                |   123.96
    2 N                |   6 C                |  15 H                |   107.95
    2 N                |   6 C                |  16 H                |   110.58
    2 N                |   6 C                |  17 H                |   110.75
   15 H                |   6 C                |  16 H                |   109.18
   15 H                |   6 C                |  17 H                |   109.32
   16 H                |   6 C                |  17 H                |   109.03
    5 N                |   7 C                |  18 H                |   109.54
    5 N                |   7 C                |  19 H                |   110.38
    5 N                |   7 C                |  20 H                |   109.52
   18 H                |   7 C                |  19 H                |   109.44
   18 H                |   7 C                |  20 H                |   109.08
   19 H                |   7 C                |  20 H                |   108.86
    9 C                |   8 O                |  25 H                |   107.94
    8 O                |   9 C                |  10 C                |   110.07
    8 O                |   9 C                |  12 H                |   111.07
    8 O                |   9 C                |  23 H                |   109.78
   10 C                |   9 C                |  12 H                |   109.37
   10 C                |   9 C                |  23 H                |   109.01
   12 H                |   9 C                |  23 H                |   107.49
    9 C                |  10 C                |  11 O                |   107.86
    9 C                |  10 C                |  21 H                |   109.21
    9 C                |  10 C                |  22 H                |   108.82
   11 O                |  10 C                |  21 H                |   111.62
   11 O                |  10 C                |  22 H                |   111.89
   21 H                |  10 C                |  22 H                |   107.39
   10 C                |  11 O                |  24 H                |   107.92
   26 H                |  27 O                |  28 C                |   107.98
   27 O                |  28 C                |  29 C                |   107.76
   27 O                |  28 C                |  30 H                |   112.35
   27 O                |  28 C                |  31 H                |   111.85
   29 C                |  28 C                |  30 H                |   108.79
   29 C                |  28 C                |  31 H                |   108.81
   30 H                |  28 C                |  31 H                |   107.20
   28 C                |  29 C                |  32 O                |   107.74
   28 C                |  29 C                |  33 H                |   108.93
   28 C                |  29 C                |  34 H                |   108.99
   32 O                |  29 C                |  33 H                |   111.86
   32 O                |  29 C                |  34 H                |   111.69
   33 H                |  29 C                |  34 H                |   107.58
   29 C                |  32 O                |  35 H                |   107.71
 ------------------------------------------------------------------------------
                            number of included internuclear angles:         53
 ==============================================================================



  library name resolved from: .nwchemrc
  library file name is: </nopt/nrel/apps/nwchem/7.0.0/data/libraries/>
  


 Summary of "ao basis" -> "" (cartesian)
 ------------------------------------------------------------------------------
       Tag                 Description            Shells   Functions and Types
 ---------------- ------------------------------  ------  ---------------------
 *                        aug-cc-pvtz                 on all atoms 


 
 
                           NWChem Geometry Optimization
                           ----------------------------
 
 
 
 
                                NREL DFT Benchmark
 
 
  no constraints, skipping   0.000000000000000E+000
 maximum gradient threshold         (gmax) =   0.000450
 rms gradient threshold             (grms) =   0.000300
 maximum cartesian step threshold   (xmax) =   0.001800
 rms cartesian step threshold       (xrms) =   0.001200
 fixed trust radius                (trust) =   0.300000
 maximum step size to saddle      (sadstp) =   0.100000
 energy precision                  (eprec) =   5.0D-06
 maximum number of steps          (nptopt) =    1
 initial hessian option           (inhess) =    0
 line search option               (linopt) =    1
 hessian update option            (modupd) =    1
 saddle point option              (modsad) =    0
 initial eigen-mode to follow     (moddir) =    0
 initial variable to follow       (vardir) =    0
 follow first negative mode     (firstneg) =    T
 apply conjugacy                    (opcg) =    F
 source of zmatrix                         =   autoz   


          -------------------
          Energy Minimization
          -------------------

 
 Names of Z-matrix variables 
    1              2              3              4              5         
    6              7              8              9             10         
   11             12             13             14             15         
   16             17             18             19             20         
   21             22             23             24             25         
   26             27             28             29             30         
   31             32             33             34             35         
   36             37             38             39             40         
   41             42             43             44             45         
   46             47             48             49             50         
   51             52             53             54             55         
   56             57             58             59             60         
   61             62             63             64             65         
   66             67             68             69             70         
   71             72             73             74             75         
   76             77             78             79             80         
   81             82             83             84             85         
   86             87             88             89             90         
   91             92             93             94             95         
   96             97             98             99            100         
  101            102            103            104            105         
  106            107            108            109            110         
  111            112            113            114            115         
  116            117            118            119            120         
  121            122            123            124            125         
  126            127            128            129            130         
  131            132            133            134            135         
  136            137            138            139            140         
  141            142            143            144            145         
  146            147            148            149            150         
  151            152            153            154            155         
  156            157            158            159            160         
  161            162            163            164            165         
  166            167            168            169            170         
  171            172            173            174            175         
  176            177            178            179            180         
  181            182            183            184            185         
  186            187            188            189            190         
  191            192            193            194            195         
  196         
 
 Variables with the same non-blank name are constrained to be equal
 
 
 Using diagonal initial Hessian 
 Scaling for Hessian diagonals: bonds = 1.00  angles = 0.25  torsions = 0.10

          --------
          Step   0
          --------
 
 
                         Geometry "geometry" -> "geometry"
                         ---------------------------------
 
 Output coordinates in angstroms (scale by  1.889725989 to convert to a.u.)
 
  No.       Tag          Charge          X              Y              Z
 ---- ---------------- ---------- -------------- -------------- --------------
    1 C                    6.0000    -0.91597399    -1.47907678     0.09921469
    2 N                    7.0000    -1.26090397    -2.68743430     0.62837096
    3 C                    6.0000    -2.52849104    -3.09232333     0.22954558
    4 C                    6.0000    -3.00143531    -2.10827182    -0.57682756
    5 N                    7.0000    -2.00844633    -1.13941326    -0.63919016
    6 C                    6.0000    -0.39449629    -3.45025396     1.51441363
    7 C                    6.0000    -2.11319771     0.08702158    -1.42612280
    8 O                    8.0000     1.40887649     0.03865447     0.37570430
    9 C                    6.0000     2.35323079    -0.51311871    -0.52895934
   10 C                    6.0000     3.50586840    -1.14854658     0.24089956
   11 O                    8.0000     4.43283800    -1.66578306    -0.70859682
   12 H                    1.0000     1.88562991    -1.26986398    -1.17594979
   13 H                    1.0000    -2.97647844    -4.02036888     0.55196611
   14 H                    1.0000    -3.94230229    -2.01310633    -1.09800053
   15 H                    1.0000     0.51117138    -2.86691852     1.68282933
   16 H                    1.0000    -0.88927984    -3.63175129     2.47423336
   17 H                    1.0000    -0.12748694    -4.41163721     1.06286022
   18 H                    1.0000    -1.32458615     0.78188908    -1.12676762
   19 H                    1.0000    -2.01656127    -0.13577976    -2.49431283
   20 H                    1.0000    -3.08731692     0.55335629    -1.24862399
   21 H                    1.0000     3.11015321    -1.94262902     0.89682775
   22 H                    1.0000     3.96424115    -0.38513612     0.88827066
   23 H                    1.0000     2.75023043     0.27697285    -1.17919992
   24 H                    1.0000     5.21087128    -1.97959562    -0.22507832
   25 H                    1.0000     0.56533926    -0.53244967     0.33614719
   26 H                    1.0000     0.75309752     1.54542914    -0.20463782
   27 O                    8.0000     0.27030007     2.32479154    -0.57677988
   28 C                    6.0000     0.03743202     3.23885346     0.47809910
   29 C                    6.0000    -0.55418017     4.50309152    -0.12567312
   30 H                    1.0000    -0.66488410     2.84178036     1.22949859
   31 H                    1.0000     0.96714295     3.49947303     1.00713087
   32 O                    8.0000    -0.82041612     5.40994509     0.94043501
   33 H                    1.0000     0.16116313     4.92128764    -0.85050435
   34 H                    1.0000    -1.47193974     4.24180934    -0.67674841
   35 H                    1.0000    -1.15808018     6.23005503     0.55215461
 
      Atomic Mass 
      ----------- 
 
      C                 12.000000
      N                 14.003070
      O                 15.994910
      H                  1.007825
 

 Effective nuclear repulsion energy (a.u.)    1021.5919040830

            Nuclear Dipole moment (a.u.) 
            ----------------------------
        X                 Y               Z
 ---------------- ---------------- ----------------
     0.0000000000     0.0000000000     0.0000000000
 
 
                                 NWChem DFT Module
                                 -----------------
 
 
                                NREL DFT Benchmark
 
 
                      Basis "ao basis" -> "ao basis" (cartesian)
                      -----
  C (Carbon)
  ----------
            Exponent  Coefficients 
       -------------- ---------------------------------------------------------
  1 S  8.23600000E+03  0.000531
  1 S  1.23500000E+03  0.004108
  1 S  2.80800000E+02  0.021087
  1 S  7.92700000E+01  0.081853
  1 S  2.55900000E+01  0.234817
  1 S  8.99700000E+00  0.434401
  1 S  3.31900000E+00  0.346129
  1 S  3.64300000E-01 -0.008983
 
  2 S  8.23600000E+03 -0.000113
  2 S  1.23500000E+03 -0.000878
  2 S  2.80800000E+02 -0.004540
  2 S  7.92700000E+01 -0.018133
  2 S  2.55900000E+01 -0.055760
  2 S  8.99700000E+00 -0.126895
  2 S  3.31900000E+00 -0.170352
  2 S  3.64300000E-01  0.598684
 
  3 S  9.05900000E-01  1.000000
 
  4 S  1.28500000E-01  1.000000
 
  5 S  4.40200000E-02  1.000000
 
  6 P  1.87100000E+01  0.014031
  6 P  4.13300000E+00  0.086866
  6 P  1.20000000E+00  0.290216
 
  7 P  3.82700000E-01  1.000000
 
  8 P  1.20900000E-01  1.000000
 
  9 P  3.56900000E-02  1.000000
 
 10 D  1.09700000E+00  1.000000
 
 11 D  3.18000000E-01  1.000000
 
 12 D  1.00000000E-01  1.000000
 
 13 F  7.61000000E-01  1.000000
 
 14 F  2.68000000E-01  1.000000
 
  N (Nitrogen)
  ------------
            Exponent  Coefficients 
       -------------- ---------------------------------------------------------
  1 S  1.14200000E+04  0.000523
  1 S  1.71200000E+03  0.004045
  1 S  3.89300000E+02  0.020775
  1 S  1.10000000E+02  0.080727
  1 S  3.55700000E+01  0.233074
  1 S  1.25400000E+01  0.433501
  1 S  4.64400000E+00  0.347472
  1 S  5.11800000E-01 -0.008508
 
  2 S  1.14200000E+04 -0.000115
  2 S  1.71200000E+03 -0.000895
  2 S  3.89300000E+02 -0.004624
  2 S  1.10000000E+02 -0.018528
  2 S  3.55700000E+01 -0.057339
  2 S  1.25400000E+01 -0.132076
  2 S  4.64400000E+00 -0.172510
  2 S  5.11800000E-01  0.599944
 
  3 S  1.29300000E+00  1.000000
 
  4 S  1.78700000E-01  1.000000
 
  5 S  5.76000000E-02  1.000000
 
  6 P  2.66300000E+01  0.014670
  6 P  5.94800000E+00  0.091764
  6 P  1.74200000E+00  0.298683
 
  7 P  5.55000000E-01  1.000000
 
  8 P  1.72500000E-01  1.000000
 
  9 P  4.91000000E-02  1.000000
 
 10 D  1.65400000E+00  1.000000
 
 11 D  4.69000000E-01  1.000000
 
 12 D  1.51000000E-01  1.000000
 
 13 F  1.09300000E+00  1.000000
 
 14 F  3.64000000E-01  1.000000
 
  O (Oxygen)
  ----------
            Exponent  Coefficients 
       -------------- ---------------------------------------------------------
  1 S  1.53300000E+04  0.000508
  1 S  2.29900000E+03  0.003929
  1 S  5.22400000E+02  0.020243
  1 S  1.47300000E+02  0.079181
  1 S  4.75500000E+01  0.230687
  1 S  1.67600000E+01  0.433118
  1 S  6.20700000E+00  0.350260
  1 S  6.88200000E-01 -0.008154
 
  2 S  1.53300000E+04 -0.000115
  2 S  2.29900000E+03 -0.000895
  2 S  5.22400000E+02 -0.004636
  2 S  1.47300000E+02 -0.018724
  2 S  4.75500000E+01 -0.058463
  2 S  1.67600000E+01 -0.136463
  2 S  6.20700000E+00 -0.175740
  2 S  6.88200000E-01  0.603418
 
  3 S  1.75200000E+00  1.000000
 
  4 S  2.38400000E-01  1.000000
 
  5 S  7.37600000E-02  1.000000
 
  6 P  3.44600000E+01  0.015928
  6 P  7.74900000E+00  0.099740
  6 P  2.28000000E+00  0.310492
 
  7 P  7.15600000E-01  1.000000
 
  8 P  2.14000000E-01  1.000000
 
  9 P  5.97400000E-02  1.000000
 
 10 D  2.31400000E+00  1.000000
 
 11 D  6.45000000E-01  1.000000
 
 12 D  2.14000000E-01  1.000000
 
 13 F  1.42800000E+00  1.000000
 
 14 F  5.00000000E-01  1.000000
 
  H (Hydrogen)
  ------------
            Exponent  Coefficients 
       -------------- ---------------------------------------------------------
  1 S  3.38700000E+01  0.006068
  1 S  5.09500000E+00  0.045308
  1 S  1.15900000E+00  0.202822
 
  2 S  3.25800000E-01  1.000000
 
  3 S  1.02700000E-01  1.000000
 
  4 S  2.52600000E-02  1.000000
 
  5 P  1.40700000E+00  1.000000
 
  6 P  3.88000000E-01  1.000000
 
  7 P  1.02000000E-01  1.000000
 
  8 D  1.05700000E+00  1.000000
 
  9 D  2.47000000E-01  1.000000
 


 Summary of "ao basis" -> "ao basis" (cartesian)
 ------------------------------------------------------------------------------
       Tag                 Description            Shells   Functions and Types
 ---------------- ------------------------------  ------  ---------------------
 C                        aug-cc-pvtz               14       55   5s4p3d2f
 N                        aug-cc-pvtz               14       55   5s4p3d2f
 O                        aug-cc-pvtz               14       55   5s4p3d2f
 H                        aug-cc-pvtz                9       25   4s3p2d




 Summary of "ao basis" -> "ao basis" (cartesian)
 ------------------------------------------------------------------------------
       Tag                 Description            Shells   Functions and Types
 ---------------- ------------------------------  ------  ---------------------
 C                        aug-cc-pvtz               14       55   5s4p3d2f
 N                        aug-cc-pvtz               14       55   5s4p3d2f
 O                        aug-cc-pvtz               14       55   5s4p3d2f
 H                        aug-cc-pvtz                9       25   4s3p2d


  Caching 1-el integrals 
 
            General Information
            -------------------
          SCF calculation type: DFT
          Wavefunction type:  closed shell.
          No. of atoms     :    35
          No. of electrons :   120
           Alpha electrons :    60
            Beta electrons :    60
          Charge           :     0
          Spin multiplicity:     1
          Use of symmetry is: off; symmetry adaption is: off
          Maximum number of iterations:  30
          This is a Direct SCF calculation.
          AO basis - number of functions:  1325
                     number of shells:   390
          Convergence on energy requested:  1.00D-06
          Convergence on density requested:  1.00D-05
          Convergence on gradient requested:  5.00D-04
 
              XC Information
              --------------
                         B3LYP Method XC Potential
                     Hartree-Fock (Exact) Exchange  0.200          
                        Slater Exchange Functional  0.800 local    
                    Becke 1988 Exchange Functional  0.720 non-local
              Lee-Yang-Parr Correlation Functional  0.810          
                  VWN I RPA Correlation Functional  0.190 local    
 
             Grid Information
             ----------------
          Grid used for XC integration:  medium    
          Radial quadrature: Mura-Knowles        
          Angular quadrature: Lebedev. 
          Tag              B.-S. Rad. Rad. Pts. Rad. Cut. Ang. Pts.
          ---              ---------- --------- --------- ---------
          C                   0.70       49          25.0       434
          N                   0.65       49          23.0       434
          O                   0.60       49          25.0       434
          H                   0.35       45          26.0       434
          Grid pruning is: on 
          Number of quadrature shells:  1635
          Spatial weights used:  Erf1
 
          Convergence Information
          -----------------------
          Convergence aids based upon iterative change in 
          total energy or number of iterations. 
          Levelshifting, if invoked, occurs when the 
          HOMO/LUMO gap drops below (HL_TOL):  1.00D-02
          DIIS, if invoked, will attempt to extrapolate 
          using up to (NFOCK): 10 stored Fock matrices.

                    Damping( 0%)  Levelshifting(0.5)       DIIS
                  --------------- ------------------- ---------------
          dE  on:    start            ASAP                start   
          dE off:    2 iters         30 iters            30 iters 

 
      Screening Tolerance Information
      -------------------------------
          Density screening/tol_rho:  1.00D-10
          AO Gaussian exp screening on grid/accAOfunc:  14
          CD Gaussian exp screening on grid/accCDfunc:  20
          XC Gaussian exp screening on grid/accXCfunc:  20
          Schwarz screening/accCoul:  1.00D-08

 
 WARNING : Found    31 linear dependencies 
 S eigenvalue threshold:     1.00000E-05
 Smallest S eigenvalue :     1.20338E-07
 Largest  S eigenvalue :     9.64731E-06
 

 !! The overlap matrix has  31 vectors deemed linearly dependent with
    eigenvalues:
 1.20D-07 2.77D-07 3.19D-07 4.23D-07 5.95D-07 7.38D-07 9.00D-07 9.85D-07
 1.19D-06 1.37D-06 1.68D-06 1.88D-06 2.04D-06 2.18D-06 2.75D-06 2.91D-06
 3.04D-06 3.41D-06 4.01D-06 4.11D-06 4.21D-06 4.70D-06 4.85D-06 5.62D-06
 6.03D-06 6.30D-06 6.67D-06 7.19D-06 8.31D-06 8.79D-06 9.65D-06
 
 
      Superposition of Atomic Density Guess
      -------------------------------------
 
 Sum of atomic energies:        -756.77777355
 
      Non-variational initial energy
      ------------------------------

 Total energy =    -765.794135
 1-e energy   =   -3057.477556
 2-e energy   =    1270.091516
 HOMO         =      -0.251620
 LUMO         =       0.014653
 
   Time after variat. SCF:     76.6
   Time prior to 1st pass:     76.6

 Grid_pts file          = /tmp/scratch/test2.gridpts.00
 Record size in doubles =  12289        No. of grid_pts per rec  =   3070
 Max. records in memory =      5        Max. recs in file   =  14475008

 Grid integrated density:     119.940519827509
 Requested integration accuracy:   0.10E-05

           Memory utilization after 1st SCF pass: 
           Heap Space remaining (MW):        6.73             6726988
          Stack Space remaining (MW):       13.10            13099300

   convergence    iter        energy       DeltaE   RMS-Dens  Diis-err    time
 ---------------- ----- ----------------- --------- --------- ---------  ------
 d= 0,ls=0.0,diis     1   -762.5959311802 -1.78D+03  8.80D+01  3.62D+03   164.1
 Grid integrated density:     119.999857767668
 Requested integration accuracy:   0.10E-05
 d= 0,ls=0.0,diis     2   -729.7812571805  3.28D+01  3.91D+01  4.25D+02   287.1
 Grid integrated density:     119.999818811332
 Requested integration accuracy:   0.10E-05
 d= 0,ls=0.5,diis     3   -700.1216239534  2.97D+01  2.95D+00  5.63D+02   410.0
 Grid integrated density:     119.999772131311
 Requested integration accuracy:   0.10E-05
 d= 0,ls=0.5,diis     4   -733.3206577490 -3.32D+01  6.66D+00  2.47D+02   532.7
 Grid integrated density:     119.999840353389
 Requested integration accuracy:   0.10E-05
 d= 0,ls=0.5,diis     5   -522.5627863535  2.11D+02  7.62D-01  1.01D+03   655.4
 Grid integrated density:     119.999832041237
 Requested integration accuracy:   0.10E-05
 d= 0,ls=0.5,diis     6   -528.1448908844 -5.58D+00  3.29D-01  9.53D+02   778.1
 Grid integrated density:     119.999830016768
 Requested integration accuracy:   0.10E-05
 d= 0,ls=0.5,diis     7   -528.6651539513 -5.20D-01  1.38D-01  9.65D+02   901.0
 Grid integrated density:     119.999830032139
 Requested integration accuracy:   0.10E-05
 d= 0,ls=0.5,diis     8   -527.3822471119  1.28D+00  1.78D-01  1.00D+03  1023.9
 Grid integrated density:     119.999833265373
 Requested integration accuracy:   0.10E-05
 d= 0,ls=0.5,diis     9   -524.2501302260  3.13D+00  7.53D-02  1.05D+03  1146.6
 Grid integrated density:     119.999834866323
 Requested integration accuracy:   0.10E-05
 d= 0,ls=0.5,diis    10   -521.8825900994  2.37D+00  5.73D-02  1.08D+03  1269.6
 Grid integrated density:     119.999835389893
 Requested integration accuracy:   0.10E-05
 d= 0,ls=0.5,diis    11   -520.3721440806  1.51D+00  6.63D+01  1.09D+03  1392.4
 d= 0,ls=0.5,diis    12   -511.7275116343  8.64D+00  7.99D-02  8.88D+02  1483.0
 d= 0,ls=0.5,diis    13   -745.2926583704 -2.34D+02  7.41D-03  9.18D+01  1570.6
 d= 0,ls=0.5,diis    14   -757.2547651159 -1.20D+01  4.95D-03  6.06D+01  1658.1
 d= 0,ls=0.5,diis    15   -729.5151870840  2.77D+01  3.83D-03  1.30D+02  1745.7
 d= 0,ls=0.5,diis    16   -759.5994988960 -3.01D+01  1.94D-03  1.88D+01  1833.2
 d= 0,ls=0.5,diis    17   -765.1926654545 -5.59D+00  6.02D-04  3.81D+00  1920.9
 d= 0,ls=0.5,diis    18   -765.5324830205 -3.40D-01  2.10D-04  8.61D-01  2008.5
 d= 0,ls=0.5,diis    19   -765.6020081381 -6.95D-02  1.18D-04  3.14D-01  2096.2
  Resetting Diis
 d= 0,ls=0.5,diis    20   -765.6330901291 -3.11D-02  1.13D-04  1.31D-01  2183.8
 d= 0,ls=0.5,diis    21   -765.6498252603 -1.67D-02  1.19D-04  4.41D-02  2271.6
 d= 0,ls=0.5,diis    22   -765.6564847264 -6.66D-03  5.31D-05  1.47D-02  2359.7
 d= 0,ls=0.5,diis    23   -765.6579295261 -1.44D-03  3.04D-05  1.85D-03  2447.6
 d= 0,ls=0.5,diis    24   -765.6582420021 -3.12D-04  1.88D-05  3.37D-04  2535.7
 d= 0,ls=0.5,diis    25   -765.6583203451 -7.83D-05  1.16D-05  5.89D-05  2623.6
 d= 0,ls=0.5,diis    26   -765.6583457690 -2.54D-05  7.15D-06  2.11D-05  2711.6
 d= 0,ls=0.5,diis    27   -765.6583559132 -1.01D-05  4.45D-06  8.55D-06  2799.6
 d= 0,ls=0.5,diis    28   -765.6583601535 -4.24D-06  2.75D-06  3.52D-06  2887.6
 d= 0,ls=0.5,diis    29   -765.6583619308 -1.78D-06  1.74D-06  1.36D-06  2975.6
 d= 0,ls=0.5,diis    30   -765.6583626484 -7.18D-07  1.12D-06  6.25D-07  3063.7


         Total DFT energy =     -765.658362950228
      One electron energy =    -3071.812471424993
           Coulomb energy =     1389.146634777433
    Exchange-Corr. energy =     -104.584430385639
 Nuclear repulsion energy =     1021.591904082970

 Numeric. integr. density =      119.999931370360

     Total iterative time =   3074.8s


 
                       DFT Final Molecular Orbital Analysis
                       ------------------------------------
 
 Vector    1  Occ=2.000000D+00  E=-1.912682D+01
              MO Center=  4.4D+00, -1.7D+00, -7.1D-01, r^2= 1.5D-02
   Bfn.  Coefficient  Atom+Function         Bfn.  Coefficient  Atom+Function  
  ----- ------------  ---------------      ----- ------------  ---------------
   551      0.982928  11 O  s               509      0.091336  10 C  pz        
   553      0.065402  11 O  s               507     -0.058019  10 C  px        
   530     -0.057340  10 C  dzz             454     -0.046849   9 C  pz        
   508      0.040921  10 C  py              580      0.040159  11 O  dxx       
   554     -0.039241  11 O  s               583      0.038057  11 O  dyy       
 
 Vector    2  Occ=2.000000D+00  E=-1.912259D+01
              MO Center= -8.2D-01,  5.4D+00,  9.4D-01, r^2= 1.5D-02
   Bfn.  Coefficient  Atom+Function         Bfn.  Coefficient  Atom+Function  
  ----- ------------  ---------------      ----- ------------  ---------------
  1196      0.982583  32 O  s              1104     -0.092778  29 C  pz        
  1198      0.065056  32 O  s              1125     -0.055402  29 C  dzz       
  1103     -0.049521  29 C  py             1199     -0.044597  32 O  s         
  1049      0.044116  28 C  pz             1228      0.037487  32 O  dyy       
  1225      0.035869  32 O  dxx            1069      0.031620  28 C  dyz       
 
 Vector    3  Occ=2.000000D+00  E=-1.909862D+01
              MO Center=  1.4D+00,  3.9D-02,  3.8D-01, r^2= 1.5D-02
   Bfn.  Coefficient  Atom+Function         Bfn.  Coefficient  Atom+Function  
  ----- ------------  ---------------      ----- ------------  ---------------
   386      0.988597   8 O  s               388      0.071467   8 O  s         
   389     -0.060196   8 O  s               941     -0.058562  25 H  px        
   454     -0.056466   9 C  pz              415      0.054132   8 O  dxx       
   420      0.048329   8 O  dzz             942     -0.047220  25 H  py        
   418      0.046243   8 O  dyy             475     -0.040662   9 C  dzz       
 
 Vector    4  Occ=2.000000D+00  E=-1.909330D+01
              MO Center=  2.7D-01,  2.3D+00, -5.8D-01, r^2= 1.5D-02
   Bfn.  Coefficient  Atom+Function         Bfn.  Coefficient  Atom+Function  
  ----- ------------  ---------------      ----- ------------  ---------------
   981      0.985730  27 O  s              1049      0.089102  28 C  pz        
   983      0.069903  27 O  s              1070     -0.054704  28 C  dzz       
  1013      0.051141  27 O  dyy            1010      0.050167  27 O  dxx       
   957     -0.043174  26 H  s              1048      0.038638  28 C  py        
  1015      0.036966  27 O  dzz            1040      0.036925  28 C  s         
 
 Vector    5  Occ=2.000000D+00  E=-1.438532D+01
              MO Center= -1.3D+00, -2.7D+00,  6.3D-01, r^2= 2.0D-02
   Bfn.  Coefficient  Atom+Function         Bfn.  Coefficient  Atom+Function  
  ----- ------------  ---------------      ----- ------------  ---------------
    56      0.998784   2 N  s                58      0.074300   2 N  s         
    57      0.054298   2 N  s               160     -0.049563   3 C  fxyz      
    50     -0.043660   1 C  fxyz            159      0.038344   3 C  fxyy      
    49      0.035721   1 C  fxyy            191     -0.033669   4 C  dxz       
   657      0.033609  14 H  s               105     -0.031304   2 N  fxyz      
 
 Vector    6  Occ=2.000000D+00  E=-1.438263D+01
              MO Center= -2.0D+00, -1.1D+00, -6.4D-01, r^2= 2.0D-02
   Bfn.  Coefficient  Atom+Function         Bfn.  Coefficient  Atom+Function  
  ----- ------------  ---------------      ----- ------------  ---------------
   221      0.998763   5 N  s               223      0.074246   5 N  s         
   222      0.054246   5 N  s               632      0.038023  13 H  s         
   216      0.034401   4 C  fxzz            213      0.033406   4 C  fxxz      
    48      0.032783   1 C  fxxz             26     -0.031161   1 C  dxz       
    25      0.029717   1 C  dxy             244      0.029783   5 N  dxx       
 
 Vector    7  Occ=2.000000D+00  E=-1.022517D+01
              MO Center= -3.9D-01, -3.5D+00,  1.5D+00, r^2= 2.8D-02
   Bfn.  Coefficient  Atom+Function         Bfn.  Coefficient  Atom+Function  
  ----- ------------  ---------------      ----- ------------  ---------------
   276      1.008872   6 C  s               277      0.076473   6 C  s         
   278      0.063889   6 C  s         
 
 Vector    8  Occ=2.000000D+00  E=-1.022111D+01
              MO Center= -2.6D+00, -2.9D+00,  6.5D-02, r^2= 3.3D-01
   Bfn.  Coefficient  Atom+Function         Bfn.  Coefficient  Atom+Function  
  ----- ------------  ---------------      ----- ------------  ---------------
   111      0.899502   3 C  s               166      0.455208   4 C  s         
   112      0.067753   3 C  s               632     -0.063631  13 H  s         
   113      0.057462   3 C  s               657     -0.040994  14 H  s         
   167      0.033265   4 C  s                12      0.030269   1 C  px        
   168      0.028533   4 C  s         
 
 Vector    9  Occ=2.000000D+00  E=-1.022017D+01
              MO Center= -2.9D+00, -2.3D+00, -4.1D-01, r^2= 3.3D-01
   Bfn.  Coefficient  Atom+Function         Bfn.  Coefficient  Atom+Function  
  ----- ------------  ---------------      ----- ------------  ---------------
   166      0.900274   4 C  s               111     -0.456757   3 C  s         
   167      0.069118   4 C  s               168      0.058557   4 C  s         
   657     -0.051027  14 H  s               112     -0.036019   3 C  s         
   113     -0.030446   3 C  s               213     -0.027213   4 C  fxxz      
 
 Vector   10  Occ=2.000000D+00  E=-1.020982D+01
              MO Center=  3.5D+00, -1.1D+00,  2.4D-01, r^2= 2.8D-02
   Bfn.  Coefficient  Atom+Function         Bfn.  Coefficient  Atom+Function  
  ----- ------------  ---------------      ----- ------------  ---------------
   496      1.008301  10 C  s               497      0.075308  10 C  s         
   498      0.061722  10 C  s               499     -0.028186  10 C  s         
 
 Vector   11  Occ=2.000000D+00  E=-1.020927D+01
              MO Center= -2.1D+00,  8.7D-02, -1.4D+00, r^2= 2.8D-02
   Bfn.  Coefficient  Atom+Function         Bfn.  Coefficient  Atom+Function  
  ----- ------------  ---------------      ----- ------------  ---------------
   331      1.009519   7 C  s               332      0.077907   7 C  s         
   333      0.062791   7 C  s         
 
 Vector   12  Occ=2.000000D+00  E=-1.020706D+01
              MO Center= -9.2D-01, -1.5D+00,  9.9D-02, r^2= 2.8D-02
   Bfn.  Coefficient  Atom+Function         Bfn.  Coefficient  Atom+Function  
  ----- ------------  ---------------      ----- ------------  ---------------
     1      1.006425   1 C  s                 2      0.071091   1 C  s         
     3      0.065317   1 C  s               389      0.037074   8 O  s         
   951     -0.033148  25 H  dxy             397      0.027565   8 O  px        
   252     -0.026209   5 N  dxz       
 
 Vector   13  Occ=2.000000D+00  E=-1.020529D+01
              MO Center= -5.5D-01,  4.5D+00, -1.3D-01, r^2= 2.8D-02
   Bfn.  Coefficient  Atom+Function         Bfn.  Coefficient  Atom+Function  
  ----- ------------  ---------------      ----- ------------  ---------------
  1091      1.008268  29 C  s              1092      0.075223  29 C  s         
  1093      0.061782  29 C  s              1094     -0.025660  29 C  s         
 
 Vector   14  Occ=2.000000D+00  E=-1.020181D+01
              MO Center=  2.4D+00, -5.1D-01, -5.3D-01, r^2= 2.8D-02
   Bfn.  Coefficient  Atom+Function         Bfn.  Coefficient  Atom+Function  
  ----- ------------  ---------------      ----- ------------  ---------------
   441      1.008488   9 C  s               442      0.075671   9 C  s         
   443      0.063025   9 C  s               444     -0.028456   9 C  s         
 
 Vector   15  Occ=2.000000D+00  E=-1.019675D+01
              MO Center=  3.7D-02,  3.2D+00,  4.8D-01, r^2= 2.8D-02
   Bfn.  Coefficient  Atom+Function         Bfn.  Coefficient  Atom+Function  
  ----- ------------  ---------------      ----- ------------  ---------------
  1036      1.008401  28 C  s              1037      0.075462  28 C  s         
  1038      0.062715  28 C  s              1039     -0.028215  28 C  s         
 
 Vector   16  Occ=2.000000D+00  E=-1.041479D+00
              MO Center= -1.7D+00, -2.0D+00, -1.8D-03, r^2= 1.5D+00
   Bfn.  Coefficient  Atom+Function         Bfn.  Coefficient  Atom+Function  
  ----- ------------  ---------------      ----- ------------  ---------------
    57      0.276727   2 N  s               222      0.266625   5 N  s         
     2      0.174459   1 C  s               112      0.140312   3 C  s         
   167      0.138189   4 C  s                59      0.101124   2 N  s         
   224      0.100050   5 N  s                 4      0.083348   1 C  s         
    58      0.067222   2 N  s               223      0.064809   5 N  s         
 
 Vector   17  Occ=2.000000D+00  E=-1.020108D+00
              MO Center=  4.2D+00, -1.5D+00, -4.5D-01, r^2= 1.3D+00
   Bfn.  Coefficient  Atom+Function         Bfn.  Coefficient  Atom+Function  
  ----- ------------  ---------------      ----- ------------  ---------------
   552      0.446303  11 O  s               554      0.292791  11 O  s         
   497      0.152918  10 C  s               553      0.122408  11 O  s         
   906      0.088746  24 H  s               907      0.088584  24 H  s         
   387      0.087367   8 O  s               442      0.060251   9 C  s         
   558      0.059694  11 O  pz              561      0.054005  11 O  pz        
 
 Vector   18  Occ=2.000000D+00  E=-1.015941D+00
              MO Center= -7.4D-01,  5.2D+00,  6.5D-01, r^2= 1.4D+00
   Bfn.  Coefficient  Atom+Function         Bfn.  Coefficient  Atom+Function  
  ----- ------------  ---------------      ----- ------------  ---------------
  1197      0.444572  32 O  s              1199      0.293942  32 O  s         
  1092      0.152882  29 C  s              1198      0.121953  32 O  s         
   982      0.092480  27 O  s              1301      0.088598  35 H  s         
  1302      0.087912  35 H  s              1037      0.062193  28 C  s         
  1203     -0.058918  32 O  pz              984      0.058184  27 O  s         
 
 Vector   19  Occ=2.000000D+00  E=-9.971565D-01
              MO Center=  1.1D+00,  9.0D-01,  1.1D-03, r^2= 3.8D+00
   Bfn.  Coefficient  Atom+Function         Bfn.  Coefficient  Atom+Function  
  ----- ------------  ---------------      ----- ------------  ---------------
   387      0.347408   8 O  s               982      0.272139  27 O  s         
   389      0.148510   8 O  s               984      0.127689  27 O  s         
   442      0.114364   9 C  s               388      0.095054   8 O  s         
   552     -0.092525  11 O  s              1197     -0.088231  32 O  s         
  1037      0.087785  28 C  s               983      0.074644  27 O  s         
 
 Vector   20  Occ=2.000000D+00  E=-9.838978D-01
              MO Center=  7.6D-01,  1.5D+00, -1.1D-01, r^2= 3.3D+00
   Bfn.  Coefficient  Atom+Function         Bfn.  Coefficient  Atom+Function  
  ----- ------------  ---------------      ----- ------------  ---------------
   982      0.354380  27 O  s               387     -0.285007   8 O  s         
   984      0.242514  27 O  s               389     -0.130980   8 O  s         
  1037      0.123144  28 C  s               442     -0.100394   9 C  s         
   983      0.096088  27 O  s               388     -0.077520   8 O  s         
  1197     -0.073974  32 O  s               956      0.058700  26 H  s         
 
 Vector   21  Occ=2.000000D+00  E=-9.324270D-01
              MO Center= -1.6D+00, -1.9D+00, -1.8D-03, r^2= 2.6D+00
   Bfn.  Coefficient  Atom+Function         Bfn.  Coefficient  Atom+Function  
  ----- ------------  ---------------      ----- ------------  ---------------
   222     -0.308990   5 N  s                57      0.301384   2 N  s         
   277      0.138076   6 C  s               332     -0.128467   7 C  s         
   167     -0.097340   4 C  s               224     -0.096774   5 N  s         
    59      0.094559   2 N  s               112      0.087393   3 C  s         
   223     -0.076330   5 N  s               250      0.075612   5 N  dxx       
 
 Vector   22  Occ=2.000000D+00  E=-7.905076D-01
              MO Center= -1.9D+00, -2.2D+00,  9.6D-03, r^2= 3.8D+00
   Bfn.  Coefficient  Atom+Function         Bfn.  Coefficient  Atom+Function  
  ----- ------------  ---------------      ----- ------------  ---------------
   112      0.239510   3 C  s               167      0.224388   4 C  s         
   277     -0.201553   6 C  s               332     -0.181793   7 C  s         
   222     -0.089375   5 N  s                61     -0.088493   2 N  px        
   227     -0.079710   5 N  py                2     -0.067984   1 C  s         
    57     -0.067145   2 N  s               113      0.062596   3 C  s         
 
 Vector   23  Occ=2.000000D+00  E=-7.452627D-01
              MO Center= -1.7D+00, -2.1D+00,  4.7D-02, r^2= 3.9D+00
   Bfn.  Coefficient  Atom+Function         Bfn.  Coefficient  Atom+Function  
  ----- ------------  ---------------      ----- ------------  ---------------
     2      0.244316   1 C  s               277     -0.190942   6 C  s         
   167     -0.174439   4 C  s               332     -0.160775   7 C  s         
   112     -0.159397   3 C  s                62      0.111789   2 N  py        
   226      0.095091   5 N  px               65      0.080994   2 N  py        
   229      0.073216   5 N  px              228      0.069427   5 N  pz        
 
 Vector   24  Occ=2.000000D+00  E=-7.239246D-01
              MO Center=  2.2D+00,  2.6D-01, -5.8D-02, r^2= 8.5D+00
   Bfn.  Coefficient  Atom+Function         Bfn.  Coefficient  Atom+Function  
  ----- ------------  ---------------      ----- ------------  ---------------
   497      0.256819  10 C  s               442      0.234647   9 C  s         
  1092      0.142189  29 C  s              1037      0.133672  28 C  s         
   387     -0.115116   8 O  s               552     -0.107126  11 O  s         
   882      0.076009  23 H  s               389     -0.073875   8 O  s         
   907     -0.072209  24 H  s               556     -0.070679  11 O  px        
 
 Vector   25  Occ=2.000000D+00  E=-7.196044D-01
              MO Center=  5.0D-01,  2.8D+00,  1.0D-01, r^2= 8.6D+00
   Bfn.  Coefficient  Atom+Function         Bfn.  Coefficient  Atom+Function  
  ----- ------------  ---------------      ----- ------------  ---------------
  1092      0.258174  29 C  s              1037      0.229357  28 C  s         
   497     -0.146873  10 C  s               442     -0.126551   9 C  s         
   982     -0.118253  27 O  s               984     -0.108688  27 O  s         
  1197     -0.107558  32 O  s               387      0.075162   8 O  s         
  1202     -0.073021  32 O  py             1302     -0.071626  35 H  s         
 
 Vector   26  Occ=2.000000D+00  E=-6.999033D-01
              MO Center= -1.6D+00, -1.7D+00, -9.3D-02, r^2= 6.1D+00
   Bfn.  Coefficient  Atom+Function         Bfn.  Coefficient  Atom+Function  
  ----- ------------  ---------------      ----- ------------  ---------------
   332      0.271129   7 C  s               277     -0.239120   6 C  s         
   167     -0.135834   4 C  s               112      0.130427   3 C  s         
    57      0.107447   2 N  s               222     -0.091800   5 N  s         
   227      0.088852   5 N  py               61     -0.076982   2 N  px        
   333      0.073194   7 C  s               278     -0.065248   6 C  s         
 
 Vector   27  Occ=2.000000D+00  E=-6.188785D-01
              MO Center= -2.0D+00, -2.1D+00, -3.8D-02, r^2= 3.7D+00
   Bfn.  Coefficient  Atom+Function         Bfn.  Coefficient  Atom+Function  
  ----- ------------  ---------------      ----- ------------  ---------------
   167     -0.178309   4 C  s               112      0.176390   3 C  s         
   226      0.127837   5 N  px               57     -0.110067   2 N  s         
   222      0.104438   5 N  s               229      0.103675   5 N  px        
     7      0.100976   1 C  py               61     -0.096743   2 N  px        
    62     -0.094697   2 N  py               10      0.093959   1 C  py        
 
 Vector   28  Occ=2.000000D+00  E=-5.985575D-01
              MO Center=  2.6D+00, -8.6D-01, -1.4D-01, r^2= 4.2D+00
   Bfn.  Coefficient  Atom+Function         Bfn.  Coefficient  Atom+Function  
  ----- ------------  ---------------      ----- ------------  ---------------
   442      0.262391   9 C  s               497     -0.240126  10 C  s         
   882      0.094338  23 H  s               391      0.085482   8 O  px        
   881      0.079485  23 H  s               387     -0.078805   8 O  s         
   394      0.079022   8 O  px              556      0.075494  11 O  px        
   552      0.073966  11 O  s               831     -0.073610  21 H  s         
 
 Vector   29  Occ=2.000000D+00  E=-5.892202D-01
              MO Center= -3.4D-01,  3.3D+00,  1.7D-01, r^2= 5.9D+00
   Bfn.  Coefficient  Atom+Function         Bfn.  Coefficient  Atom+Function  
  ----- ------------  ---------------      ----- ------------  ---------------
  1037      0.262677  28 C  s              1092     -0.237258  29 C  s         
   984     -0.098989  27 O  s               982     -0.086773  27 O  s         
  1146      0.075280  30 H  s              1171      0.075056  31 H  s         
  1197      0.073290  32 O  s              1038      0.071852  28 C  s         
  1202      0.072127  32 O  py             1276     -0.072007  34 H  s         
 
 Vector   30  Occ=2.000000D+00  E=-5.865655D-01
              MO Center= -1.5D+00, -1.4D+00, -3.3D-02, r^2= 8.2D+00
   Bfn.  Coefficient  Atom+Function         Bfn.  Coefficient  Atom+Function  
  ----- ------------  ---------------      ----- ------------  ---------------
     2      0.164391   1 C  s               222     -0.121757   5 N  s         
   172     -0.116068   4 C  py               57     -0.113999   2 N  s         
   116     -0.109403   3 C  px              332      0.105259   7 C  s         
   175     -0.101724   4 C  py               62      0.101097   2 N  py        
   226      0.100309   5 N  px              119     -0.098093   3 C  px        
 
 Vector   31  Occ=2.000000D+00  E=-5.430876D-01
              MO Center= -1.9D+00, -2.2D+00, -4.5D-02, r^2= 5.7D+00
   Bfn.  Coefficient  Atom+Function         Bfn.  Coefficient  Atom+Function  
  ----- ------------  ---------------      ----- ------------  ---------------
   171      0.124912   4 C  px              174      0.123800   4 C  px        
   117      0.113651   3 C  py              120      0.113283   3 C  py        
    61     -0.101702   2 N  px              227     -0.096310   5 N  py        
    64     -0.088989   2 N  px              631     -0.087614  13 H  s         
   119      0.087051   3 C  px              116      0.085440   3 C  px        
 
 Vector   32  Occ=2.000000D+00  E=-5.229482D-01
              MO Center=  1.0D+00,  2.2D+00,  8.4D-02, r^2= 1.3D+01
   Bfn.  Coefficient  Atom+Function         Bfn.  Coefficient  Atom+Function  
  ----- ------------  ---------------      ----- ------------  ---------------
  1202      0.155437  32 O  py             1205      0.146729  32 O  py        
  1302      0.132623  35 H  s               556      0.122416  11 O  px        
   987      0.117785  27 O  py              559      0.116003  11 O  px        
   990      0.116215  27 O  py              907      0.107746  24 H  s         
  1098     -0.107765  29 C  pz             1199     -0.100861  32 O  s         
 
 Vector   33  Occ=2.000000D+00  E=-5.203397D-01
              MO Center=  1.8D+00,  7.4D-01,  1.3D-02, r^2= 1.4D+01
   Bfn.  Coefficient  Atom+Function         Bfn.  Coefficient  Atom+Function  
  ----- ------------  ---------------      ----- ------------  ---------------
   556      0.152092  11 O  px              559      0.144472  11 O  px        
   907      0.135378  24 H  s              1202     -0.120327  32 O  py        
  1205     -0.113486  32 O  py              503      0.109428  10 C  pz        
   391      0.106805   8 O  px              554     -0.106842  11 O  s         
   394      0.105813   8 O  px             1302     -0.101182  35 H  s         
 
 Vector   34  Occ=2.000000D+00  E=-4.913955D-01
              MO Center= -1.2D+00, -2.1D+00,  2.5D-01, r^2= 5.3D+00
   Bfn.  Coefficient  Atom+Function         Bfn.  Coefficient  Atom+Function  
  ----- ------------  ---------------      ----- ------------  ---------------
    66      0.124128   2 N  pz               63      0.122819   2 N  pz        
   283      0.110314   6 C  pz              231      0.108202   5 N  pz        
   228      0.105979   5 N  pz              732     -0.102555  17 H  s         
   707      0.097198  16 H  s               286      0.091029   6 C  pz        
   782     -0.080363  19 H  s                65      0.073968   2 N  py        
 
 Vector   35  Occ=2.000000D+00  E=-4.879330D-01
              MO Center=  2.0D+00, -4.9D-01, -9.4D-02, r^2= 7.6D+00
   Bfn.  Coefficient  Atom+Function         Bfn.  Coefficient  Atom+Function  
  ----- ------------  ---------------      ----- ------------  ---------------
   447      0.126990   9 C  py              607     -0.112385  12 H  s         
   450      0.108565   9 C  py              392      0.106775   8 O  py        
   395      0.103325   8 O  py              907     -0.098667  24 H  s         
   557      0.096293  11 O  py              391      0.094277   8 O  px        
   560      0.093609  11 O  py              832     -0.093989  21 H  s         
 
 Vector   36  Occ=2.000000D+00  E=-4.759587D-01
              MO Center= -2.1D+00, -2.2D+00, -1.9D-02, r^2= 5.8D+00
   Bfn.  Coefficient  Atom+Function         Bfn.  Coefficient  Atom+Function  
  ----- ------------  ---------------      ----- ------------  ---------------
   174      0.136696   4 C  px              171      0.114090   4 C  px        
   656     -0.111139  14 H  s               112      0.108183   3 C  s         
   167     -0.107775   4 C  s               226     -0.107568   5 N  px        
   631      0.107036  13 H  s               119     -0.104740   3 C  px        
   120     -0.100283   3 C  py              229     -0.100212   5 N  px        
 
 Vector   37  Occ=2.000000D+00  E=-4.700174D-01
              MO Center=  2.4D-01,  3.3D+00,  8.8D-02, r^2= 6.1D+00
   Bfn.  Coefficient  Atom+Function         Bfn.  Coefficient  Atom+Function  
  ----- ------------  ---------------      ----- ------------  ---------------
  1172      0.125835  31 H  s              1041      0.120614  28 C  px        
  1252      0.117367  33 H  s              1202      0.113251  32 O  py        
   986      0.110829  27 O  px             1096      0.110765  29 C  px        
   989      0.107604  27 O  px             1205      0.107359  32 O  py        
  1044      0.101959  28 C  px             1099      0.095780  29 C  px        
 
 Vector   38  Occ=2.000000D+00  E=-4.640499D-01
              MO Center= -2.7D-01,  3.0D+00,  1.3D-01, r^2= 7.0D+00
   Bfn.  Coefficient  Atom+Function         Bfn.  Coefficient  Atom+Function  
  ----- ------------  ---------------      ----- ------------  ---------------
   987      0.133402  27 O  py              990      0.129523  27 O  py        
  1096      0.129372  29 C  px             1099      0.117005  29 C  px        
  1147     -0.117439  30 H  s              1277     -0.117156  34 H  s         
  1043     -0.103396  28 C  pz             1201      0.103681  32 O  px        
  1204      0.100682  32 O  px             1146     -0.094854  30 H  s         
 
 Vector   39  Occ=2.000000D+00  E=-4.578177D-01
              MO Center= -1.5D+00, -1.7D+00, -1.9D-01, r^2= 7.1D+00
   Bfn.  Coefficient  Atom+Function         Bfn.  Coefficient  Atom+Function  
  ----- ------------  ---------------      ----- ------------  ---------------
   782     -0.134055  19 H  s               338      0.133316   7 C  pz        
   732      0.124955  17 H  s               341      0.117701   7 C  pz        
   807      0.110184  20 H  s               282     -0.104318   6 C  py        
   283     -0.104803   6 C  pz              731      0.100711  17 H  s         
   285     -0.098855   6 C  py              781     -0.097490  19 H  s         
 
 Vector   40  Occ=2.000000D+00  E=-4.545266D-01
              MO Center= -1.8D+00, -2.4D+00,  2.7D-01, r^2= 5.6D+00
   Bfn.  Coefficient  Atom+Function         Bfn.  Coefficient  Atom+Function  
  ----- ------------  ---------------      ----- ------------  ---------------
   283     -0.117247   6 C  pz              286     -0.116939   6 C  pz        
   657     -0.115737  14 H  s               285      0.114649   6 C  py        
   117      0.112001   3 C  py              173      0.112076   4 C  pz        
   282      0.112029   6 C  py              171      0.097370   4 C  px        
    61      0.096000   2 N  px              118     -0.092494   3 C  pz        
 
 Vector   41  Occ=2.000000D+00  E=-4.510648D-01
              MO Center= -1.8D+00, -1.5D+00, -2.9D-01, r^2= 5.2D+00
   Bfn.  Coefficient  Atom+Function         Bfn.  Coefficient  Atom+Function  
  ----- ------------  ---------------      ----- ------------  ---------------
   227      0.179047   5 N  py              230      0.152668   5 N  py        
   340     -0.147543   7 C  py              337     -0.138332   7 C  py        
   228     -0.111389   5 N  pz              117      0.107462   3 C  py        
   341      0.107260   7 C  pz              284      0.104634   6 C  px        
   338      0.099542   7 C  pz              281      0.098578   6 C  px        
 
 Vector   42  Occ=2.000000D+00  E=-4.487153D-01
              MO Center=  2.6D+00, -5.3D-01,  1.3D-02, r^2= 5.3D+00
   Bfn.  Coefficient  Atom+Function         Bfn.  Coefficient  Atom+Function  
  ----- ------------  ---------------      ----- ------------  ---------------
   391      0.153290   8 O  px              394      0.153358   8 O  px        
   502     -0.145892  10 C  py              857     -0.126867  22 H  s         
[...]
   60 Bend                     7    27    26                84.95923   -0.28305
   61 Bend                     7    27    28               120.05598    0.10639
   62 Bend                     8    26    27               171.99367    0.15237
   63 Bend                     8     9    10               110.40607    0.33802
   64 Bend                     8     9    12               110.84514   -0.22441
   65 Bend                     8     9    23               109.69492   -0.08517
   66 Bend                     8     1     2               130.81143   -0.06293
   67 Bend                     8     1     5               125.83356   -0.07993
   68 Bend                     9     8    26               112.29857    0.32301
   69 Bend                     9     8    25               108.32783    0.38842
   70 Bend                     9    10    11               108.24294    0.37941
   71 Bend                     9    10    21               109.30429    0.09883
   72 Bend                     9    10    22               108.91592    0.09232
   73 Bend                    10     9    12               109.38401    0.01657
   74 Bend                    10     9    23               108.92493   -0.08151
   75 Bend                    10    11    24               109.09551    1.17071
   76 Bend                    11    10    21               111.24797   -0.36836
   77 Bend                    11    10    22               111.53239   -0.36097
   78 Bend                    12     9    23               107.51921    0.02925
   79 Bend                    15     6    16               109.11949   -0.06478
   80 Bend                    15     6    17               109.28060   -0.03725
   81 Bend                    16     6    17               109.06163    0.03118
   82 Bend                    18    27    26                83.94419   -0.27605
   83 Bend                    18    27    28               120.16796    0.13763
   84 Bend                    18     7    19               109.44513    0.00862
   85 Bend                    18     7    20               109.07069   -0.01073
   86 Bend                    19     7    20               108.87488    0.01131
   87 Bend                    21    10    22               107.55704    0.17066
   88 Bend                    25     8    26                99.12066   -0.09046
   89 Bend                    26    27    28               108.80905    0.82724
   90 Bend                    27     7     5               111.66952   -0.05247
   91 Bend                    27     7    19               108.57028    0.04767
   92 Bend                    27     7    20               107.70824   -0.04853
   93 Bend                    27    28    29               108.11697    0.35696
   94 Bend                    27    28    30               111.93863   -0.40993
   95 Bend                    27    28    31               111.62091   -0.22650
   96 Bend                    28    29    32               108.16206    0.41924
   97 Bend                    28    29    33               109.04703    0.11787
   98 Bend                    28    29    34               109.11080    0.11916
   99 Bend                    29    28    30               108.90234    0.10849
  100 Bend                    29    28    31               108.87477    0.06162
  101 Bend                    29    32    35               108.89605    1.18337
  102 Bend                    30    28    31               107.32231    0.12327
  103 Bend                    32    29    33               111.47062   -0.38725
  104 Bend                    32    29    34               111.28675   -0.39869
  105 Bend                    33    29    34               107.72196    0.14494
  106 Torsion                  1     2     3     4          -0.04726    0.00721
  107 Torsion                  1     2     3    13        -179.63089   -0.01086
  108 Torsion                  1     2     6    15           2.09195    0.01559
  109 Torsion                  1     2     6    16         121.46673    0.00984
  110 Torsion                  1     2     6    17        -117.57944   -0.01584
  111 Torsion                  1     5     4     3           0.23655    0.02123
  112 Torsion                  1     5     4    14         179.93216    0.00477
  113 Torsion                  1     5     7    18         -14.73398   -0.04768
  114 Torsion                  1     5     7    19         105.80462   -0.07222
  115 Torsion                  1     5     7    20        -134.31305   -0.03149
  116 Torsion                  2     1     8    26        -163.24142    0.21415
  117 Torsion                  2     1     8     9          80.84921   -0.28232
  118 Torsion                  1     2    25     8        -169.16889   -0.33815
  119 Torsion                  2     1     5     4          -0.25531   -0.01656
  120 Torsion                  2     1     5     7        -179.08930   -0.00600
  121 Torsion                  2     3     4     5          -0.10976   -0.01663
  122 Torsion                  2     3     4    14        -179.77188    0.00078
  123 Torsion                  3     2     1    25         178.55234    0.06801
  124 Torsion                  3     2     1     5           0.18354    0.00567
  125 Torsion                  3     2     6    15        -177.50340    0.00871
  126 Torsion                  3     2     6    16         -58.12862    0.00296
  127 Torsion                  3     2     6    17          62.82520   -0.02272
  128 Torsion                  3     4     5     7         179.07258    0.01228
  129 Torsion                  4     3     2     6         179.58935    0.01494
  130 Torsion                  4     5     1    25        -178.66716   -0.08295
  131 Torsion                  4     5     7    18         166.56983   -0.03510
  132 Torsion                  4     5     7    19         -72.89156   -0.05964
  133 Torsion                  4     5     7    20          46.99076   -0.01891
  134 Torsion                  5     1     8    26          16.68455    0.22728
  135 Torsion                  5     1     8     9         -99.22482   -0.26919
  136 Torsion                  1     5    25     8         172.39200    0.11761
  137 Torsion                  5     1     2     6        -179.45587   -0.00035
  138 Torsion                  5     4     3    13         179.42833    0.00466
  139 Torsion                  5     7    27    26          20.51517    0.18549
  140 Torsion                  5     7    27    28         -88.32377   -0.62015
  141 Torsion                  7     5    18    27         179.26221   -0.10114
  142 Torsion                  6     2     1    25          -1.08706    0.06199
  143 Torsion                  6     2     3    13           0.00572   -0.00313
  144 Torsion                  7     5     1    25           2.49884   -0.07239
  145 Torsion                  7     5     4    14          -1.23181   -0.00418
  146 Torsion                  8    26    27    18          -0.08878    0.09933
  147 Torsion                  8    26    27    28         119.76125    0.21400
  148 Torsion                  8     9    10    11        -179.09459   -0.03764
  149 Torsion                  8     9    10    21          59.58835    0.12035
  150 Torsion                  8     9    10    22         -57.66388   -0.19231
  151 Torsion                  9     8    26    27          99.43986    0.38866
  152 Torsion                  1    25     9     8         173.37242    0.38567
  153 Torsion                  9    10    11    24         173.71358   -0.00432
  154 Torsion                 10     9     8    26         141.60132   -0.19394
  155 Torsion                 10     9     8    25        -109.95756    0.06266
  156 Torsion                 11    10     9    12          58.67161    0.01222
  157 Torsion                 11    10     9    23         -58.58545    0.01432
  158 Torsion                 12     9     8    26         -97.02790   -0.09482
  159 Torsion                 12     9     8    25          11.41323    0.16177
  160 Torsion                 12     9    10    21         -62.64545    0.17021
  161 Torsion                 12     9    10    22        -179.89768   -0.14246
  162 Torsion                 13     3     4    14          -0.23379    0.02206
  163 Torsion                 18    27    28    29         -92.77364    0.10998
  164 Torsion                 18    27    28    30          27.17646    0.22939
  165 Torsion                 18    27    28    31         147.50298   -0.05968
  166 Torsion                 19     7    27    26        -101.39887    0.19180
  167 Torsion                 19     7    27    28         149.76219   -0.61384
  168 Torsion                  7    19    18    27        -175.00573    0.04218
  169 Torsion                 20     7    27    26         140.85742    0.17934
  170 Torsion                 20     7    27    28          32.01848   -0.62630
  171 Torsion                  7    20    18    27         175.80449    0.07887
  172 Torsion                 21    10     9    23        -179.90251    0.17231
  173 Torsion                 21    10    11    24         -66.17819    0.13871
  174 Torsion                 22    10     9    23          62.84526   -0.14035
  175 Torsion                 22    10    11    24          53.91190   -0.14524
  176 Torsion                 23     9     8    26          21.55430   -0.25128
  177 Torsion                 23     9     8    25         129.99542    0.00531
  178 Torsion                 25     8    26    27         -14.76877   -0.12170
  179 Torsion                  1    25    26     8        -174.66131   -0.18806
  180 Torsion                  7    18    26    27         178.04105    0.12387
  181 Torsion                 26    27    28    29         173.26563   -0.10517
  182 Torsion                 26    27    28    30         -66.78426    0.01423
  183 Torsion                 26    27    28    31          53.54225   -0.27483
  184 Torsion                 27    28    29    32         178.45340   -0.07973
  185 Torsion                 27    28    29    33         -60.16164   -0.22696
  186 Torsion                 27    28    29    34          57.25368    0.08091
  187 Torsion                  7    18    28    27        -171.59645   -0.01560
  188 Torsion                 28    29    32    35         177.38165   -0.00668
  189 Torsion                 30    28    29    32          56.61384    0.13710
  190 Torsion                 30    28    29    33         177.99880   -0.01012
  191 Torsion                 30    28    29    34         -64.58588    0.29774
  192 Torsion                 31    28    29    32         -60.10883   -0.10391
  193 Torsion                 31    28    29    33          61.27613   -0.25114
  194 Torsion                 31    28    29    34         178.69145    0.05672
  195 Torsion                 33    29    32    35          57.50762   -0.18895
  196 Torsion                 34    29    32    35         -62.77665    0.16912
 
 ==============================================================================
                                internuclear distances
 ------------------------------------------------------------------------------
       center one      |      center two      | atomic units |  angstroms
 ------------------------------------------------------------------------------
    2 N                |   1 C                |     2.56655  |     1.35816
    3 C                |   2 N                |     2.61533  |     1.38398
    4 C                |   3 C                |     2.55409  |     1.35157
    5 N                |   1 C                |     2.56326  |     1.35642
    5 N                |   4 C                |     2.61397  |     1.38325
    6 C                |   2 N                |     2.74576  |     1.45300
    7 C                |   5 N                |     2.75596  |     1.45839
    9 C                |   8 O                |     2.68110  |     1.41878
   10 C                |   9 C                |     2.87739  |     1.52265
   11 O                |  10 C                |     2.69629  |     1.42681
   12 H                |   9 C                |     2.06951  |     1.09514
   13 H                |   3 C                |     2.03105  |     1.07478
   14 H                |   4 C                |     2.03109  |     1.07481
   15 H                |   6 C                |     2.05085  |     1.08526
   16 H                |   6 C                |     2.05981  |     1.09001
   17 H                |   6 C                |     2.06038  |     1.09030
   18 H                |   7 C                |     2.05621  |     1.08810
   19 H                |   7 C                |     2.06088  |     1.09057
   20 H                |   7 C                |     2.05907  |     1.08961
   21 H                |  10 C                |     2.07336  |     1.09718
   22 H                |  10 C                |     2.06978  |     1.09528
   23 H                |   9 C                |     2.06615  |     1.09336
   24 H                |  11 O                |     1.80929  |     0.95744
   25 H                |   8 O                |     1.91875  |     1.01536
   27 O                |  26 H                |     1.85574  |     0.98202
   28 C                |  27 O                |     2.67537  |     1.41575
   29 C                |  28 C                |     2.87036  |     1.51893
   30 H                |  28 C                |     2.07387  |     1.09745
   31 H                |  28 C                |     2.07094  |     1.09590
   32 O                |  29 C                |     2.69704  |     1.42721
   33 H                |  29 C                |     2.06981  |     1.09530
   34 H                |  29 C                |     2.07175  |     1.09632
   35 H                |  32 O                |     1.80902  |     0.95729
 ------------------------------------------------------------------------------
                         number of included internuclear distances:         33
 ==============================================================================



 ==============================================================================
                                 internuclear angles
 ------------------------------------------------------------------------------
        center 1       |       center 2       |       center 3       |  degrees
 ------------------------------------------------------------------------------
    2 N                |   1 C                |   5 N                |   103.35
    1 C                |   2 N                |   3 C                |   112.04
    1 C                |   2 N                |   6 C                |   123.65
    3 C                |   2 N                |   6 C                |   124.31
    2 N                |   3 C                |   4 C                |   106.18
    2 N                |   3 C                |  13 H                |   122.96
    4 C                |   3 C                |  13 H                |   130.86
    3 C                |   4 C                |   5 N                |   106.48
    3 C                |   4 C                |  14 H                |   130.75
    5 N                |   4 C                |  14 H                |   122.77
    1 C                |   5 N                |   4 C                |   111.94
    1 C                |   5 N                |   7 C                |   124.10
    4 C                |   5 N                |   7 C                |   123.95
    2 N                |   6 C                |  15 H                |   108.12
    2 N                |   6 C                |  16 H                |   110.53
    2 N                |   6 C                |  17 H                |   110.70
   15 H                |   6 C                |  16 H                |   109.12
   15 H                |   6 C                |  17 H                |   109.28
   16 H                |   6 C                |  17 H                |   109.06
    5 N                |   7 C                |  18 H                |   109.49
    5 N                |   7 C                |  19 H                |   110.37
    5 N                |   7 C                |  20 H                |   109.57
   18 H                |   7 C                |  19 H                |   109.45
   18 H                |   7 C                |  20 H                |   109.07
   19 H                |   7 C                |  20 H                |   108.87
    9 C                |   8 O                |  25 H                |   108.33
    8 O                |   9 C                |  10 C                |   110.41
    8 O                |   9 C                |  12 H                |   110.85
    8 O                |   9 C                |  23 H                |   109.69
   10 C                |   9 C                |  12 H                |   109.38
   10 C                |   9 C                |  23 H                |   108.92
   12 H                |   9 C                |  23 H                |   107.52
    9 C                |  10 C                |  11 O                |   108.24
    9 C                |  10 C                |  21 H                |   109.30
    9 C                |  10 C                |  22 H                |   108.92
   11 O                |  10 C                |  21 H                |   111.25
   11 O                |  10 C                |  22 H                |   111.53
   21 H                |  10 C                |  22 H                |   107.56
   10 C                |  11 O                |  24 H                |   109.10
   26 H                |  27 O                |  28 C                |   108.81
   27 O                |  28 C                |  29 C                |   108.12
   27 O                |  28 C                |  30 H                |   111.94
   27 O                |  28 C                |  31 H                |   111.62
   29 C                |  28 C                |  30 H                |   108.90
   29 C                |  28 C                |  31 H                |   108.87
   30 H                |  28 C                |  31 H                |   107.32
   28 C                |  29 C                |  32 O                |   108.16
   28 C                |  29 C                |  33 H                |   109.05
   28 C                |  29 C                |  34 H                |   109.11
   32 O                |  29 C                |  33 H                |   111.47
   32 O                |  29 C                |  34 H                |   111.29
   33 H                |  29 C                |  34 H                |   107.72
   29 C                |  32 O                |  35 H                |   108.90
 ------------------------------------------------------------------------------
                            number of included internuclear angles:         53
 ==============================================================================



 ------------------------------------------------------------------------
 dft optimize failed                                                                                0
 ------------------------------------------------------------------------
 ------------------------------------------------------------------------
  current input line : 
    54:  task dft optimize
 ------------------------------------------------------------------------
 ------------------------------------------------------------------------
 This type of error is most commonly associated with calculations not reaching 
 convergence criteria
 ------------------------------------------------------------------------
 For more information see the NWChem manual at 
 https://github.com/nwchemgit/nwchem/wiki


 For further details see manual section: 
                                                                                
                                                                                
                                                                                
                   
