LAMMPS (3 Mar 2020)
  using 1 OpenMP thread(s) per MPI task
Reading data file ...
  orthogonal box = (0.0498083 0.0498083 0.0498083) to (208.651 208.651 208.651)
  4 by 4 by 4 MPI processor grid
  reading atoms ...
  744000 atoms
  reading velocities ...
  744000 velocities
  scanning bonds ...
  2 = max bonds/atom
  reading bonds ...
  648000 bonds
Finding 1-2 1-3 1-4 neighbors ...
  special bond factors lj:   0          0          0         
  special bond factors coul: 0          0          0         
  2 = max # of 1-2 neighbors
  2 = max # of 1-3 neighbors
  4 = max # of 1-4 neighbors
  2 = max # of special neighbors
  special bonds CPU = 0.0195218 secs
  read_data CPU = 1.50589 secs
Replicating atoms ...
  orthogonal box = (0.0498083 0.0498083 0.0498083) to (417.253 417.253 417.253)
  4 by 4 by 4 MPI processor grid
  5952000 atoms
  5184000 bonds
Finding 1-2 1-3 1-4 neighbors ...
  special bond factors lj:   0          0          0         
  special bond factors coul: 0          0          0         
  2 = max # of 1-2 neighbors
  2 = max # of 1-3 neighbors
  4 = max # of 1-4 neighbors
  2 = max # of special neighbors
  special bonds CPU = 0.0809873 secs
  replicate CPU = 0.313179 secs
PPPM initialization ...
  using 12-bit tables for long-range coulomb (../kspace.cpp:332)
  G vector (1/distance) = 0.263924
  grid = 216 216 216
  stencil order = 5
  estimated absolute RMS force accuracy = 0.0346605
  estimated relative force accuracy = 0.000104379
  using single precision MKL FFT
  3d grid and FFT values/proc = 226981 186624
Neighbor list info ...
  update every 1 steps, delay 10 steps, check yes
  max neighbors/atom: 2000, page size: 100000
  master list distance cutoff = 12
  ghost atom cutoff = 12
  binsize = 6, bins = 70 70 70
  1 neighbor lists, perpetual/occasional/extra = 1 0 0
  (1) pair lj/cut/coul/long, perpetual
      attributes: half, newton on
      pair build: half/bin/newton
      stencil: half/bin/3d/newton
      bin: standard
Setting up Verlet run ...
  Unit style    : real
  Current step  : 0
  Time step     : 1
Per MPI rank memory allocation (min/avg/max) = 199.5 | 201.1 | 203.1 Mbytes
Step Temp E_pair E_mol TotEng Press 
       0    299.89378    -97283939    2137399.5    -89825891    40.182668 
     200    299.54897    -97292933    2152593.8    -89825808   -39.293068 
     400    299.76802    -97295257    2151125.6    -89825714   -41.010038 
     600    299.85802    -97290976    2144887.4    -89826074   -6.3942654 
     800    300.06363    -97292107    2142449.1    -89825995    3.6957102 
    1000    300.05084    -97299268    2149851.3    -89825981     25.71451 
    1200    300.18922    -97306751    2155009.9    -89825851   -2.3286583 
    1400    300.13678    -97300573    2149475.8    -89826137   -7.0022422 
    1600     300.0957    -97304144    2153998.6    -89825914   -29.728613 
    1800    300.10359    -97308038    2157628.2    -89826039  -0.37718482 
    2000     300.1435    -97305546    2154451.3    -89826015   -27.130041 
    2200    300.08842    -97306936    2156727.8    -89826106   -11.980049 
    2400    299.93507    -97306787    2159278.7    -89826127   -3.6049571 
    2600    300.04638    -97304918    2155480.6    -89826081   -14.151232 
    2800    300.19433    -97312483    2160332.2    -89826169   -30.626505 
    3000    300.11708    -97312316    2161608.7    -89826097   -19.441259 
    3200    300.05238    -97311922    2162264.2    -89826195   -30.249162 
    3400    300.02459    -97310535    2161431.4    -89826133   -3.4236675 
    3600    300.02675    -97309730    2160587.9    -89826133    -5.725676 
    3800    299.98238    -97310313    2161866.8    -89826225   -31.605615 
    4000    300.07489    -97315741    2165714.8    -89826164   -21.171132 
    4200    300.01988    -97316905    2167826.4    -89826193    -19.35098 
    4400    300.08581    -97316479    2166170.8    -89826252   -27.586845 
    4600    300.08554    -97315443    2165081.8    -89826310   -11.684364 
    4800    300.10315    -97317632    2167011.2    -89826257   -24.125165 
    5000    300.23876    -97320585    2167533.1    -89826282  -0.57359891 
    5200    300.06939    -97318877    2168825.1    -89826287   -20.232041 
    5400    300.21277    -97322633    2170026.3    -89826298   -49.083048 
    5600    300.16674    -97324843    2173036.8    -89826315   -22.863596 
    5800    300.13205    -97323259    2172022.6    -89826360   -23.688166 
    6000    299.97789    -97320579    2172143.9    -89826294   -26.721458 
    6200    300.25666    -97328287    2174745.9    -89826454   -34.900414 
    6400    300.08034    -97325204    2174885.7    -89826359   -24.643385 
    6600    300.25391    -97325805    2172319.2    -89826447   -21.043736 
    6800    300.26793    -97326025    2172309.2    -89826428   -34.075188 
    7000    300.23028    -97327403    2174315.4    -89826469   -12.909721 
    7200    300.17628    -97328713      2176592    -89826460   -28.375547 
    7400    300.27101    -97329654    2175819.6    -89826493   -20.907135 
    7600    300.20776    -97330939    2178219.4    -89826500   -49.091779 
    7800    300.08977    -97329423    2178790.9    -89826506   -26.669454 
    8000    300.33393    -97335738    2180688.4    -89826592   -17.248721 
    8200    300.14282    -97332695    2181062.4    -89826565   -35.742935 
    8400    300.27418    -97337218    2183255.1    -89826565   -33.008116 
    8600    300.21558    -97333930    2181018.5    -89826554   -30.805166 
    8800    300.22213    -97336459    2183374.8    -89826610   -38.362907 
    9000    300.22063    -97336389    2183299.8    -89826641   -25.440558 
    9200      300.346    -97340348    2185024.5    -89826652   -36.165941 
    9400    300.28838    -97339582    2185266.9    -89826665   -39.017485 
    9600    300.26822    -97338611    2184632.2    -89826687   -52.409003 
    9800    300.30292    -97341227    2186565.2    -89826754   -13.043893 
   10000     300.3594    -97343375    2187748.1    -89826717   -54.971665 
   10200    300.41527    -97346072    2189469.9    -89826700   -32.589523 
   10400    300.43406    -97348512    2191600.2    -89826677   -59.131324 
   10600    300.35254    -97349688    2194191.9    -89826708    -29.01926 
   10800    300.49048    -97345724      2187665    -89826824   -28.555751 
   11000    300.40436    -97348746    2192263.5    -89826775   -51.574252 
   11200    300.46429    -97350330      2192701    -89826859   -35.880879 
   11400    300.47774    -97352888    2195088.3    -89826790    -49.45459 
   11600    300.37639    -97351425    2195402.5    -89826811   -26.931863 
   11800    300.39179    -97350149    2193809.3    -89826855    -38.37558 
   12000    300.35291    -97352242    2196594.1    -89826853   -65.635467 
   12200    300.44144    -97350770    2193477.2    -89826928   -53.647734 
   12400    300.15176    -97348574    2196466.7    -89826881   -60.077719 
   12600    300.22362    -97349541    2196113.6    -89826927   -48.124271 
   12800    300.39618    -97355975    2199466.3    -89826946    -67.02299 
   13000    300.40257    -97355323    2198714.5    -89826932   -45.805657 
   13200    300.33421    -97353520    2198136.9    -89826920   -39.706519 
   13400    300.27266    -97354614    2200253.6    -89826990   -32.585274 
   13600    300.47617    -97356971    2199005.3    -89826984      -49.457 
   13800    300.49809    -97359714    2201325.2    -89827018    -56.31746 
   14000    300.34263    -97356934      2201368    -89826954   -44.912441 
   14200    300.48533    -97365698    2207541.1    -89827013    -53.50511 
   14400    300.55237    -97362422      2203028    -89827061   -62.866499 
   14600    300.42211    -97360387    2203284.3    -89827081   -52.311455 
   14800    300.43222    -97363394    2206108.5    -89827083   -52.719918 
   15000    300.48605    -97363380    2205069.9    -89827153   -54.107597 
   15200    300.51108    -97363834    2205067.6    -89827165   -49.207456 
   15400    300.52135    -97365927    2207034.5    -89827109   -56.843635 
   15600    300.51255    -97367860    2209045.8    -89827187   -97.552916 
   15800    300.61727    -97365923    2205222.6    -89827215    -48.00358 
   16000    300.60882    -97369862    2209304.3    -89827223   -57.443945 
   16200     300.5171    -97370224    2211320.1    -89827196   -58.918489 
   16400    300.45164    -97369145    2211350.6    -89827248   -54.342131 
   16600    300.57308    -97370076    2210135.2    -89827240   -73.315085 
   16800    300.51749    -97370351      2211327    -89827309    -68.42957 
   17000     300.4389    -97370704    2213107.9    -89827276   -66.725231 
   17200    300.64488    -97374242    2212926.3    -89827341   -52.670447 
   17400    300.45541    -97373334    2215462.1    -89827259   -73.955171 
   17600    300.73695    -97375840    2212797.3    -89827434   -43.309042 
   17800    300.53905    -97375632    2216229.2    -89827306   -57.048876 
   18000    300.64091    -97377600    2216383.9    -89827312   -62.328133 
   18200    300.64076    -97378241    2216974.4    -89827365    -63.13238 
   18400    300.67066    -97380282    2218466.1    -89827384   -62.888066 
   18600    300.64551    -97383369    2222082.9    -89827300   -58.665378 
   18800    300.60976    -97383128    2222371.9    -89827404   -79.832741 
   19000    300.54646    -97380435    2220782.7    -89827424   -83.952466 
   19200    300.66365    -97381459    2219734.2    -89827417   -58.313954 
   19400    300.81361    -97387335    2222889.3    -89827477   -94.792888 
   19600    300.70756    -97384168    2221600.4    -89827480   -42.703768 
   19800    300.76802    -97385671    2221970.1    -89827542   -89.043958 
   20000    300.66286    -97387347    2225552.3    -89827501   -72.294785 
Loop time of 11243.5 on 64 procs for 20000 steps with 5952000 atoms

Performance: 0.154 ns/day, 156.160 hours/ns, 1.779 timesteps/s
100.0% CPU use with 64 MPI tasks x 1 OpenMP threads

MPI task timing breakdown:
Section |  min time  |  avg time  |  max time  |%varavg| %total
---------------------------------------------------------------
Pair    | 7495.8     | 7782       | 8230.2     | 180.3 | 69.21
Bond    | 38.531     | 46.226     | 55.956     |  57.4 |  0.41
Kspace  | 1683.3     | 2128.5     | 2417.4     | 347.2 | 18.93
Neigh   | 962        | 966.55     | 970.97     |   6.8 |  8.60
Comm    | 167.59     | 184.73     | 206.64     |  62.6 |  1.64
Output  | 1.0407     | 1.103      | 1.1816     |   2.9 |  0.01
Modify  | 69.043     | 93.071     | 113.04     | 115.8 |  0.83
Other   |            | 41.4       |            |       |  0.37

Nlocal:    93000 ave 93314 max 92747 min
Histogram: 2 3 12 11 10 13 5 5 2 1
Nghost:    80014.8 ave 80345 max 79755 min
Histogram: 2 7 10 11 10 12 4 4 2 2
Neighs:    2.75504e+07 ave 2.78428e+07 max 2.72716e+07 min
Histogram: 1 1 5 12 16 12 11 4 1 1

Total # of neighbors = 1763222484
Ave neighs/atom = 296.24
Ave special neighs/atom = 1.74194
Neighbor list builds = 1599
Dangerous builds = 6
System init for write_data ...
PPPM initialization ...
  using 12-bit tables for long-range coulomb (../kspace.cpp:332)
  G vector (1/distance) = 0.263924
  grid = 216 216 216
  stencil order = 5
  estimated absolute RMS force accuracy = 0.0346605
  estimated relative force accuracy = 0.000104379
  using single precision MKL FFT
  3d grid and FFT values/proc = 226981 186624
Total wall time: 3:07:51
