 vasp.6.1.2 22Jul20 (build Oct 22 2020 13:15:48) complex                        
  
 executed on                Eagle date 2020.11.04  00:16:29
 running on   48 total cores
 distrk:  each k-point on    6 cores,    8 groups
 distr:  one band on NCORE=   1 cores,    6 groups


--------------------------------------------------------------------------------------------------------


 INCAR:
 POTCAR:   PAW_PBE Cu 05Jan2001                   
 POTCAR:   PAW_PBE In_d 06Sep2000                 
 POTCAR:   PAW_PBE Se 06Sep2000                   
 -----------------------------------------------------------------------------
|                                                                             |
|           W    W    AA    RRRRR   N    N  II  N    N   GGGG   !!!           |
|           W    W   A  A   R    R  NN   N  II  NN   N  G    G  !!!           |
|           W    W  A    A  R    R  N N  N  II  N N  N  G       !!!           |
|           W WW W  AAAAAA  RRRRR   N  N N  II  N  N N  G  GGG   !            |
|           WW  WW  A    A  R   R   N   NN  II  N   NN  G    G                |
|           W    W  A    A  R    R  N    N  II  N    N   GGGG   !!!           |
|                                                                             |
|     For optimal performance we recommend to set                             |
|       NCORE = 4 - approx SQRT(number of cores).                             |
|     NCORE specifies how many cores store one orbital (NPAR=cpu/NCORE).      |
|     This setting can greatly improve the performance of VASP for DFT.       |
|     The default, NCORE=1 might be grossly inefficient on modern             |
|     multi-core architectures or massively parallel machines. Do your        |
|     own testing!!!!                                                         |
|     Unfortunately you need to use the default for GW and RPA                |
|     calculations (for HF NCORE is supported but not extensively tested      |
|     yet).                                                                   |
|                                                                             |
 -----------------------------------------------------------------------------

 POTCAR:   PAW_PBE Cu 05Jan2001                   
   VRHFIN =Cu: d10 p1                                                                               
   LEXCH  = PE                                                                                      
   EATOM  =  1390.9800 eV,  102.2341 Ry                                                             
                                                                                                    
   TITEL  = PAW_PBE Cu 05Jan2001                                                                    
   LULTRA =        F    use ultrasoft PP ?                                                          
   IUNSCR =        1    unscreen: 0-lin 1-nonlin 2-no                                               
   RPACOR =    2.000    partial core radius                                                         
   POMASS =   63.546; ZVAL   =   11.000    mass and valenz                                          
   RCORE  =    2.300    outmost cutoff radius                                                       
   RWIGS  =    2.480; RWIGS  =    1.312    wigner-seitz radius (au A)                               
   ENMAX  =  273.214; ENMIN  =  204.910 eV                                                          
   RCLOC  =    1.712    cutoff for local pot                                                        
   LCOR   =        T    correct aug charges                                                         
   LPAW   =        T    paw PP                                                                      
   EAUG   =  516.456                                                                                
   DEXC   =    -.008                                                                                
   RMAX   =    2.789    core radius for proj-oper                                                   
   RAUG   =    1.300    factor for augmentation sphere                                              
   RDEP   =    2.302    radius for radial grids                                                     
   QCUT   =   -4.481; QGAM   =    8.962    optimization parameters                                  
                                                                                                    
   Description                                                                                      
     l     E      TYP  RCUT    TYP  RCUT                                                            
     2   .000     23  2.300                                                                         
     2   .000     23  2.300                                                                         
     0   .000     23  2.300                                                                         
     0   .000     23  2.300                                                                         
     1  -.200     23  2.300                                                                         
     1   .000     23  2.300                                                                         
     3   .000      7   .000                                                                         
  local pseudopotential read in
  partial core-charges read in
  atomic valenz-charges read in
  non local Contribution for L=           2  read in
    real space projection operators read in
  non local Contribution for L=           2  read in
    real space projection operators read in
  non local Contribution for L=           0  read in
    real space projection operators read in
  non local Contribution for L=           0  read in
    real space projection operators read in
  non local Contribution for L=           1  read in
    real space projection operators read in
  non local Contribution for L=           1  read in
    real space projection operators read in
    PAW grid and wavefunctions read in
 
   number of l-projection  operators is LMAX  =           6
   number of lm-projection operators is LMMAX =          18
 
 POTCAR:   PAW_PBE In_d 06Sep2000                 
   VRHFIN =In: s2p1                                                                                 
   LEXCH  = PE                                                                                      
   EATOM  =  1576.8738 eV,  115.8970 Ry                                                             
                                                                                                    
   TITEL  = PAW_PBE In_d 06Sep2000                                                                  
   LULTRA =        F    use ultrasoft PP ?                                                          
   IUNSCR =        1    unscreen: 0-lin 1-nonlin 2-no                                               
   RPACOR =    2.200    partial core radius                                                         
   POMASS =  114.820; ZVAL   =   13.000    mass and valenz                                          
   RCORE  =    2.500    outmost cutoff radius                                                       
   RWIGS  =    3.170; RWIGS  =    1.677    wigner-seitz radius (au A)                               
   ENMAX  =  239.218; ENMIN  =  179.413 eV                                                          
   ICORE  =        3    local potential                                                             
   LCOR   =        T    correct aug charges                                                         
   LPAW   =        T    paw PP                                                                      
   EAUG   =  449.704                                                                                
   DEXC   =    -.003                                                                                
   RMAX   =    2.981    core radius for proj-oper                                                   
   RAUG   =    1.300    factor for augmentation sphere                                              
   RDEP   =    2.630    radius for radial grids                                                     
   QCUT   =   -4.193; QGAM   =    8.386    optimization parameters                                  
                                                                                                    
   Description                                                                                      
     l     E      TYP  RCUT    TYP  RCUT                                                            
     2   .000     23  2.500                                                                         
     2  -.100     23  2.500                                                                         
     0   .000     23  2.500                                                                         
     0   .000     23  2.500                                                                         
     1   .000     23  2.500                                                                         
     1   .000     23  2.500                                                                         
     3  -.100      7  2.500                                                                         
  local pseudopotential read in
  partial core-charges read in
  atomic valenz-charges read in
  non local Contribution for L=           2  read in
    real space projection operators read in
  non local Contribution for L=           2  read in
    real space projection operators read in
  non local Contribution for L=           0  read in
    real space projection operators read in
  non local Contribution for L=           0  read in
    real space projection operators read in
  non local Contribution for L=           1  read in
    real space projection operators read in
  non local Contribution for L=           1  read in
    real space projection operators read in
    PAW grid and wavefunctions read in
 
   number of l-projection  operators is LMAX  =           6
   number of lm-projection operators is LMMAX =          18
 
 POTCAR:   PAW_PBE Se 06Sep2000                   
   VRHFIN =Se: s2p4                                                                                 
   LEXCH  = PE                                                                                      
   EATOM  =   256.9644 eV,   18.8864 Ry                                                             
                                                                                                    
   TITEL  = PAW_PBE Se 06Sep2000                                                                    
   LULTRA =        F    use ultrasoft PP ?                                                          
   IUNSCR =        1    unscreen: 0-lin 1-nonlin 2-no                                               
   RPACOR =    1.900    partial core radius                                                         
   POMASS =   78.960; ZVAL   =    6.000    mass and valenz                                          
   RCORE  =    2.100    outmost cutoff radius                                                       
   RWIGS  =    2.200; RWIGS  =    1.164    wigner-seitz radius (au A)                               
   ENMAX  =  211.534; ENMIN  =  158.651 eV                                                          
   ICORE  =        3    local potential                                                             
   LCOR   =        T    correct aug charges                                                         
   LPAW   =        T    paw PP                                                                      
   EAUG   =  446.842                                                                                
   DEXC   =    -.031                                                                                
   RMAX   =    3.170    core radius for proj-oper                                                   
   RAUG   =    1.300    factor for augmentation sphere                                              
   RDEP   =    2.177    radius for radial grids                                                     
   QCUT   =   -3.943; QGAM   =    7.886    optimization parameters                                  
                                                                                                    
   Description                                                                                      
     l     E      TYP  RCUT    TYP  RCUT                                                            
     0   .000     23  2.100                                                                         
     0   .000     23  2.100                                                                         
     1   .000     23  2.100                                                                         
     1   .000     23  2.100                                                                         
     2   .000     23  2.100                                                                         
     3  -.100      7  2.100                                                                         
  local pseudopotential read in
  partial core-charges read in
  atomic valenz-charges read in
  non local Contribution for L=           0  read in
    real space projection operators read in
  non local Contribution for L=           0  read in
    real space projection operators read in
  non local Contribution for L=           1  read in
    real space projection operators read in
  non local Contribution for L=           1  read in
    real space projection operators read in
  non local Contribution for L=           2  read in
    real space projection operators read in
    PAW grid and wavefunctions read in
 
   number of l-projection  operators is LMAX  =           5
   number of lm-projection operators is LMMAX =          13
 
 Optimization of the real space projectors (new method)

 maximal supplied QI-value         = 16.25
 optimisation between [QCUT,QGAM] = [  8.78, 17.71] = [ 21.57, 87.87] Ry 
 Optimized for a Real-space Cutoff    1.55 Angstroem

   l    n(q)    QCUT    max X(q) W(low)/X(q) W(high)/X(q)  e(spline) 
   2      7     8.776     4.977    0.28E-04    0.69E-04    0.37E-07
   2      7     8.776    13.467    0.23E-03    0.53E-03    0.29E-06
   0      8     8.776    13.303    0.20E-04    0.99E-06    0.49E-08
   0      8     8.776    44.613    0.14E-03    0.13E-03    0.52E-07
   1      8     8.776     5.276    0.26E-04    0.52E-04    0.24E-07
   1      8     8.776     7.322    0.72E-04    0.20E-03    0.79E-07
 Optimization of the real space projectors (new method)

 maximal supplied QI-value         = 15.12
 optimisation between [QCUT,QGAM] = [  8.77, 17.69] = [ 21.53, 87.61] Ry 
 Optimized for a Real-space Cutoff    1.55 Angstroem

   l    n(q)    QCUT    max X(q) W(low)/X(q) W(high)/X(q)  e(spline) 
   2      7     8.768     5.612    0.14E-03    0.19E-03    0.63E-07
   2      7     8.768    10.513    0.23E-03    0.21E-03    0.19E-06
   0      8     8.768    10.288    0.14E-04    0.27E-05    0.44E-08
   0      8     8.768   125.287    0.12E-03    0.17E-03    0.49E-07
   1      8     8.768     9.436    0.42E-05    0.24E-04    0.20E-07
   1      8     8.768   104.332    0.20E-03    0.10E-03    0.71E-07
 Optimization of the real space projectors (new method)

 maximal supplied QI-value         = 17.95
 optimisation between [QCUT,QGAM] = [  8.80, 17.59] = [ 21.67, 86.68] Ry 
 Optimized for a Real-space Cutoff    1.59 Angstroem

   l    n(q)    QCUT    max X(q) W(low)/X(q) W(high)/X(q)  e(spline) 
   0      8     8.797     6.499    0.18E-04    0.31E-05    0.21E-07
   0      8     8.797    52.623    0.85E-04    0.16E-03    0.90E-07
   1      8     8.797     4.229    0.27E-04    0.53E-04    0.61E-07
   1      8     8.797    29.991    0.18E-03    0.33E-04    0.29E-06
   2      7     8.797     3.719    0.85E-04    0.16E-03    0.78E-07
 PAW_PBE Cu 05Jan2001                   :
 energy of atom  1       EATOM=-1390.9800
 kinetic energy error for atom=    0.0323 (will be added to EATOM!!)
 PAW_PBE In_d 06Sep2000                 :
 energy of atom  2       EATOM=-1576.8738
 kinetic energy error for atom=    0.0380 (will be added to EATOM!!)
 PAW_PBE Se 06Sep2000                   :
 energy of atom  3       EATOM= -256.9644
 kinetic energy error for atom=    0.0040 (will be added to EATOM!!)
 
 
 POSCAR: Cu1-In1-Se2 'I -4 2 d'  #122
  positions in direct lattice
  No initial velocities read in
 exchange correlation table for  LEXCH =        8
   RHO(1)=    0.500       N(1)  =     2000
   RHO(2)=  100.500       N(2)  =     4000
 


--------------------------------------------------------------------------------------------------------


 ion  position               nearest neighbor table
   1  0.000  0.500  0.250-   9 2.46  11 2.46  13 2.46  14 2.46
   2  0.000  0.000  0.000-  10 2.46  12 2.46  13 2.46  14 2.46
   3  0.500  0.000  0.750-  10 2.46  12 2.46  15 2.46  16 2.46
   4  0.500  0.500  0.500-   9 2.46  11 2.46  15 2.46  16 2.46
   5  0.000  0.500  0.750-  15 2.56  16 2.56  10 2.56  12 2.56
   6  0.000  0.000  0.500-  15 2.56  16 2.56   9 2.56  11 2.56
   7  0.500  0.000  0.250-  13 2.56  14 2.56   9 2.56  11 2.56
   8  0.500  0.500  0.000-  13 2.56  14 2.56  10 2.56  12 2.56
   9  0.750  0.265  0.375-   1 2.46   4 2.46   6 2.56   7 2.56
  10  0.250  0.765  0.875-   2 2.46   3 2.46   5 2.56   8 2.56
  11  0.250  0.735  0.375-   1 2.46   4 2.46   6 2.56   7 2.56
  12  0.750  0.235  0.875-   2 2.46   3 2.46   5 2.56   8 2.56
  13  0.235  0.250  0.125-   1 2.46   2 2.46   7 2.56   8 2.56
  14  0.765  0.750  0.125-   1 2.46   2 2.46   7 2.56   8 2.56
  15  0.735  0.750  0.625-   3 2.46   4 2.46   5 2.56   6 2.56
  16  0.265  0.250  0.625-   3 2.46   4 2.46   5 2.56   6 2.56
 
  LATTYP: Found a simple tetragonal cell.
 ALAT       =     5.7824000000
 C/A-ratio  =     2.0094078583
  
  Lattice vectors:
  
 A1 = (   5.7824000000,   0.0000000000,   0.0000000000)
 A2 = (   0.0000000000,   5.7824000000,   0.0000000000)
 A3 = (   0.0000000000,   0.0000000000,  11.6192000000)


Analysis of symmetry for initial positions (statically):
=====================================================================
 Subroutine PRICEL returns following result:
 
  LATTYP: Found a body centered tetragonal cell.
 ALAT       =     5.7824000000
 C/A-ratio  =     2.0094078583
  
  Lattice vectors:
  
 A1 = (   2.8912000000,  -2.8912000000,   5.8096000000)
 A2 = (  -2.8912000000,   2.8912000000,   5.8096000000)
 A3 = (  -2.8912000000,  -2.8912000000,  -5.8096000000)
 
   2 primitive cells build up your supercell.
 

 Routine SETGRP: Setting up the symmetry group for a 
 simple tetragonal supercell.


 Subroutine GETGRP returns: Found  8 space group operations
 (whereof  4 operations were pure point group operations)
 out of a pool of 16 trial point group operations.


The static configuration has the point symmetry S_4 .
 The point group associated with its full space group is D_2d.


Analysis of symmetry for dynamics (positions and initial velocities):
=====================================================================
 Subroutine PRICEL returns following result:
 
  LATTYP: Found a body centered tetragonal cell.
 ALAT       =     5.7824000000
 C/A-ratio  =     2.0094078583
  
  Lattice vectors:
  
 A1 = (   2.8912000000,  -2.8912000000,   5.8096000000)
 A2 = (  -2.8912000000,   2.8912000000,   5.8096000000)
 A3 = (  -2.8912000000,  -2.8912000000,  -5.8096000000)
 
   2 primitive cells build up your supercell.
 

 Routine SETGRP: Setting up the symmetry group for a 
 simple tetragonal supercell.


 Subroutine GETGRP returns: Found  8 space group operations
 (whereof  4 operations were pure point group operations)
 out of a pool of 16 trial point group operations.


The dynamic configuration has the point symmetry S_4 .
 The point group associated with its full space group is D_2d.


 Subroutine INISYM returns: Found  8 space group operations
 (whereof  4 operations are pure point group operations),
 and found     2 'primitive' translations


----------------------------------------------------------------------------------------

                                     Primitive cell                                     

  volume of cell :     194.2507

  direct lattice vectors                    reciprocal lattice vectors
     2.891200000 -2.891200000  5.809600000     0.000000000 -0.172938572  0.086064445
    -2.891200000  2.891200000  5.809600000    -0.172938572 -0.000000000  0.086064445
    -2.891200000 -2.891200000 -5.809600000    -0.172938572 -0.172938572  0.000000000

  length of vectors
     7.104190808  7.104190808  7.104190808     0.193170491  0.193170491  0.244572074

  position of ions in fractional coordinates (direct lattice)
     0.750000000  0.250000000  0.500000000
     0.000000000  0.000000000  0.000000000
     0.500000000  0.500000000  0.000000000
     0.250000000  0.750000000  0.500000000
     0.110000000  0.625000000  0.985000000
     0.640000000  0.125000000  0.015000000
     0.875000000  0.890000000  0.515000000
     0.375000000  0.360000000  0.485000000

  ion indices of the primitive-cell ions
   primitive index   ion index
                 1           1
                 2           2
                 3           6
                 4           7
                 5           9
                 6          11
                 7          13
                 8          14

----------------------------------------------------------------------------------------

 
 
 KPOINTS: KPOINTS                                 

Automatic generation of k-mesh.
Space group operators:
 irot       det(A)        alpha          n_x          n_y          n_z        tau_x        tau_y        tau_z
    1     1.000000     0.000000     1.000000     0.000000     0.000000     0.000000     0.000000     0.000000
    2    -1.000000    90.000000     0.000000     0.000000    -1.000000     0.000000     0.000000     0.000000
    3     1.000000   180.000000     0.000000     0.000000     1.000000     0.000000     0.000000     0.000000
    4    -1.000000    90.000000     0.000000     0.000000     1.000000     0.000000     0.000000     0.000000
    5     1.000000   180.000000     0.000000     1.000000     0.000000     0.000000     0.500000     0.250000
    6    -1.000000   180.000000     0.707107     0.707107     0.000000     0.000000     0.500000     0.250000
    7     1.000000   180.000000     1.000000     0.000000     0.000000     0.000000     0.500000     0.250000
    8    -1.000000   180.000000     0.707107    -0.707107     0.000000     0.000000     0.500000     0.250000
 
 Subroutine IBZKPT returns following result:
 ===========================================
 
 Found     63 irreducible k-points:
 
 Following reciprocal coordinates:
            Coordinates               Weight
  0.000000  0.000000  0.000000      1.000000
  0.100000  0.000000  0.000000      4.000000
  0.200000  0.000000  0.000000      4.000000
  0.300000  0.000000  0.000000      4.000000
  0.400000  0.000000  0.000000      4.000000
  0.500000  0.000000  0.000000      2.000000
  0.100000  0.100000  0.000000      4.000000
  0.200000  0.100000  0.000000      8.000000
  0.300000  0.100000  0.000000      8.000000
  0.400000  0.100000  0.000000      8.000000
  0.500000  0.100000  0.000000      4.000000
  0.200000  0.200000  0.000000      4.000000
  0.300000  0.200000  0.000000      8.000000
  0.400000  0.200000  0.000000      8.000000
  0.500000  0.200000  0.000000      4.000000
  0.300000  0.300000  0.000000      4.000000
  0.400000  0.300000  0.000000      8.000000
  0.500000  0.300000  0.000000      4.000000
  0.400000  0.400000  0.000000      4.000000
  0.500000  0.400000  0.000000      4.000000
  0.500000  0.500000  0.000000      1.000000
  0.000000  0.000000  0.200000      2.000000
  0.100000  0.000000  0.200000      8.000000
  0.200000  0.000000  0.200000      8.000000
  0.300000  0.000000  0.200000      8.000000
  0.400000  0.000000  0.200000      8.000000
  0.500000  0.000000  0.200000      4.000000
  0.100000  0.100000  0.200000      8.000000
  0.200000  0.100000  0.200000     16.000000
  0.300000  0.100000  0.200000     16.000000
  0.400000  0.100000  0.200000     16.000000
  0.500000  0.100000  0.200000      8.000000
  0.200000  0.200000  0.200000      8.000000
  0.300000  0.200000  0.200000     16.000000
  0.400000  0.200000  0.200000     16.000000
  0.500000  0.200000  0.200000      8.000000
  0.300000  0.300000  0.200000      8.000000
  0.400000  0.300000  0.200000     16.000000
  0.500000  0.300000  0.200000      8.000000
  0.400000  0.400000  0.200000      8.000000
  0.500000  0.400000  0.200000      8.000000
  0.500000  0.500000  0.200000      2.000000
  0.000000  0.000000  0.400000      2.000000
  0.100000  0.000000  0.400000      8.000000
  0.200000  0.000000  0.400000      8.000000
  0.300000  0.000000  0.400000      8.000000
  0.400000  0.000000  0.400000      8.000000
  0.500000  0.000000  0.400000      4.000000
  0.100000  0.100000  0.400000      8.000000
  0.200000  0.100000  0.400000     16.000000
  0.300000  0.100000  0.400000     16.000000
  0.400000  0.100000  0.400000     16.000000
  0.500000  0.100000  0.400000      8.000000
  0.200000  0.200000  0.400000      8.000000
  0.300000  0.200000  0.400000     16.000000
  0.400000  0.200000  0.400000     16.000000
  0.500000  0.200000  0.400000      8.000000
  0.300000  0.300000  0.400000      8.000000
  0.400000  0.300000  0.400000     16.000000
  0.500000  0.300000  0.400000      8.000000
  0.400000  0.400000  0.400000      8.000000
  0.500000  0.400000  0.400000      8.000000
  0.500000  0.500000  0.400000      2.000000
 
 Following cartesian coordinates:
            Coordinates               Weight
  0.000000  0.000000  0.000000      1.000000
  0.017294  0.000000  0.000000      4.000000
  0.034588  0.000000  0.000000      4.000000
  0.051882  0.000000  0.000000      4.000000
  0.069175  0.000000  0.000000      4.000000
  0.086469  0.000000  0.000000      2.000000
  0.017294  0.017294  0.000000      4.000000
  0.034588  0.017294  0.000000      8.000000
  0.051882  0.017294  0.000000      8.000000
  0.069175  0.017294  0.000000      8.000000
  0.086469  0.017294  0.000000      4.000000
  0.034588  0.034588  0.000000      4.000000
  0.051882  0.034588  0.000000      8.000000
  0.069175  0.034588  0.000000      8.000000
  0.086469  0.034588  0.000000      4.000000
  0.051882  0.051882  0.000000      4.000000
  0.069175  0.051882  0.000000      8.000000
  0.086469  0.051882  0.000000      4.000000
  0.069175  0.069175  0.000000      4.000000
  0.086469  0.069175  0.000000      4.000000
  0.086469  0.086469  0.000000      1.000000
  0.000000  0.000000  0.017213      2.000000
  0.017294  0.000000  0.017213      8.000000
  0.034588  0.000000  0.017213      8.000000
  0.051882  0.000000  0.017213      8.000000
  0.069175  0.000000  0.017213      8.000000
  0.086469  0.000000  0.017213      4.000000
  0.017294  0.017294  0.017213      8.000000
  0.034588  0.017294  0.017213     16.000000
  0.051882  0.017294  0.017213     16.000000
  0.069175  0.017294  0.017213     16.000000
  0.086469  0.017294  0.017213      8.000000
  0.034588  0.034588  0.017213      8.000000
  0.051882  0.034588  0.017213     16.000000
  0.069175  0.034588  0.017213     16.000000
  0.086469  0.034588  0.017213      8.000000
  0.051882  0.051882  0.017213      8.000000
  0.069175  0.051882  0.017213     16.000000
  0.086469  0.051882  0.017213      8.000000
  0.069175  0.069175  0.017213      8.000000
  0.086469  0.069175  0.017213      8.000000
  0.086469  0.086469  0.017213      2.000000
  0.000000  0.000000  0.034426      2.000000
  0.017294  0.000000  0.034426      8.000000
  0.034588  0.000000  0.034426      8.000000
  0.051882  0.000000  0.034426      8.000000
  0.069175  0.000000  0.034426      8.000000
  0.086469  0.000000  0.034426      4.000000
  0.017294  0.017294  0.034426      8.000000
  0.034588  0.017294  0.034426     16.000000
  0.051882  0.017294  0.034426     16.000000
  0.069175  0.017294  0.034426     16.000000
  0.086469  0.017294  0.034426      8.000000
  0.034588  0.034588  0.034426      8.000000
  0.051882  0.034588  0.034426     16.000000
  0.069175  0.034588  0.034426     16.000000
  0.086469  0.034588  0.034426      8.000000
  0.051882  0.051882  0.034426      8.000000
  0.069175  0.051882  0.034426     16.000000
  0.086469  0.051882  0.034426      8.000000
  0.069175  0.069175  0.034426      8.000000
  0.086469  0.069175  0.034426      8.000000
  0.086469  0.086469  0.034426      2.000000
 
 
 Subroutine IBZKPT_HF returns following result:
 ==============================================
 
 Found    500 k-points in 1st BZ
 the following    500 k-points will be used (e.g. in the exchange kernel)
 Following reciprocal coordinates:   # in IRBZ
  0.000000  0.000000  0.000000    0.00200000   1 t-inv F
  0.100000  0.000000  0.000000    0.00200000   2 t-inv F
  0.200000  0.000000  0.000000    0.00200000   3 t-inv F
  0.300000  0.000000  0.000000    0.00200000   4 t-inv F
  0.400000  0.000000  0.000000    0.00200000   5 t-inv F
  0.500000  0.000000  0.000000    0.00200000   6 t-inv F
  0.100000  0.100000  0.000000    0.00200000   7 t-inv F
  0.200000  0.100000  0.000000    0.00200000   8 t-inv F
  0.300000  0.100000  0.000000    0.00200000   9 t-inv F
  0.400000  0.100000  0.000000    0.00200000  10 t-inv F
  0.500000  0.100000  0.000000    0.00200000  11 t-inv F
  0.200000  0.200000  0.000000    0.00200000  12 t-inv F
  0.300000  0.200000  0.000000    0.00200000  13 t-inv F
  0.400000  0.200000  0.000000    0.00200000  14 t-inv F
  0.500000  0.200000  0.000000    0.00200000  15 t-inv F
  0.300000  0.300000  0.000000    0.00200000  16 t-inv F
  0.400000  0.300000  0.000000    0.00200000  17 t-inv F
  0.500000  0.300000  0.000000    0.00200000  18 t-inv F
  0.400000  0.400000  0.000000    0.00200000  19 t-inv F
  0.500000  0.400000  0.000000    0.00200000  20 t-inv F
  0.500000  0.500000  0.000000    0.00200000  21 t-inv F
  0.000000  0.000000  0.200000    0.00200000  22 t-inv F
  0.100000  0.000000  0.200000    0.00200000  23 t-inv F
  0.200000  0.000000  0.200000    0.00200000  24 t-inv F
  0.300000  0.000000  0.200000    0.00200000  25 t-inv F
  0.400000  0.000000  0.200000    0.00200000  26 t-inv F
  0.500000  0.000000  0.200000    0.00200000  27 t-inv F
  0.100000  0.100000  0.200000    0.00200000  28 t-inv F
  0.200000  0.100000  0.200000    0.00200000  29 t-inv F
  0.300000  0.100000  0.200000    0.00200000  30 t-inv F
  0.400000  0.100000  0.200000    0.00200000  31 t-inv F
  0.500000  0.100000  0.200000    0.00200000  32 t-inv F
  0.200000  0.200000  0.200000    0.00200000  33 t-inv F
  0.300000  0.200000  0.200000    0.00200000  34 t-inv F
  0.400000  0.200000  0.200000    0.00200000  35 t-inv F
  0.500000  0.200000  0.200000    0.00200000  36 t-inv F
  0.300000  0.300000  0.200000    0.00200000  37 t-inv F
  0.400000  0.300000  0.200000    0.00200000  38 t-inv F
  0.500000  0.300000  0.200000    0.00200000  39 t-inv F
  0.400000  0.400000  0.200000    0.00200000  40 t-inv F
  0.500000  0.400000  0.200000    0.00200000  41 t-inv F
  0.500000  0.500000  0.200000    0.00200000  42 t-inv F
  0.000000  0.000000  0.400000    0.00200000  43 t-inv F
  0.100000  0.000000  0.400000    0.00200000  44 t-inv F
  0.200000  0.000000  0.400000    0.00200000  45 t-inv F
  0.300000  0.000000  0.400000    0.00200000  46 t-inv F
  0.400000  0.000000  0.400000    0.00200000  47 t-inv F
  0.500000  0.000000  0.400000    0.00200000  48 t-inv F
  0.100000  0.100000  0.400000    0.00200000  49 t-inv F
  0.200000  0.100000  0.400000    0.00200000  50 t-inv F
  0.300000  0.100000  0.400000    0.00200000  51 t-inv F
  0.400000  0.100000  0.400000    0.00200000  52 t-inv F
  0.500000  0.100000  0.400000    0.00200000  53 t-inv F
  0.200000  0.200000  0.400000    0.00200000  54 t-inv F
  0.300000  0.200000  0.400000    0.00200000  55 t-inv F
  0.400000  0.200000  0.400000    0.00200000  56 t-inv F
  0.500000  0.200000  0.400000    0.00200000  57 t-inv F
  0.300000  0.300000  0.400000    0.00200000  58 t-inv F
  0.400000  0.300000  0.400000    0.00200000  59 t-inv F
  0.500000  0.300000  0.400000    0.00200000  60 t-inv F
  0.400000  0.400000  0.400000    0.00200000  61 t-inv F
  0.500000  0.400000  0.400000    0.00200000  62 t-inv F
  0.500000  0.500000  0.400000    0.00200000  63 t-inv F
  0.000000 -0.100000  0.000000    0.00200000   2 t-inv F
 -0.100000  0.000000  0.000000    0.00200000   2 t-inv F
  0.000000  0.100000  0.000000    0.00200000   2 t-inv F
  0.000000 -0.200000  0.000000    0.00200000   3 t-inv F
 -0.200000  0.000000  0.000000    0.00200000   3 t-inv F
  0.000000  0.200000  0.000000    0.00200000   3 t-inv F
  0.000000 -0.300000  0.000000    0.00200000   4 t-inv F
 -0.300000  0.000000  0.000000    0.00200000   4 t-inv F
  0.000000  0.300000  0.000000    0.00200000   4 t-inv F
  0.000000 -0.400000  0.000000    0.00200000   5 t-inv F
 -0.400000  0.000000  0.000000    0.00200000   5 t-inv F
  0.000000  0.400000  0.000000    0.00200000   5 t-inv F
  0.000000 -0.500000  0.000000    0.00200000   6 t-inv F
  0.100000 -0.100000  0.000000    0.00200000   7 t-inv F
 -0.100000 -0.100000  0.000000    0.00200000   7 t-inv F
 -0.100000  0.100000  0.000000    0.00200000   7 t-inv F
  0.100000 -0.200000  0.000000    0.00200000   8 t-inv F
 -0.200000 -0.100000  0.000000    0.00200000   8 t-inv F
 -0.100000  0.200000  0.000000    0.00200000   8 t-inv F
 -0.200000  0.100000  0.000000    0.00200000   8 t-inv F
 -0.100000 -0.200000  0.000000    0.00200000   8 t-inv F
  0.200000 -0.100000  0.000000    0.00200000   8 t-inv F
  0.100000  0.200000  0.000000    0.00200000   8 t-inv F
  0.100000 -0.300000  0.000000    0.00200000   9 t-inv F
 -0.300000 -0.100000  0.000000    0.00200000   9 t-inv F
 -0.100000  0.300000  0.000000    0.00200000   9 t-inv F
 -0.300000  0.100000  0.000000    0.00200000   9 t-inv F
 -0.100000 -0.300000  0.000000    0.00200000   9 t-inv F
  0.300000 -0.100000  0.000000    0.00200000   9 t-inv F
  0.100000  0.300000  0.000000    0.00200000   9 t-inv F
  0.100000 -0.400000  0.000000    0.00200000  10 t-inv F
 -0.400000 -0.100000  0.000000    0.00200000  10 t-inv F
 -0.100000  0.400000  0.000000    0.00200000  10 t-inv F
 -0.400000  0.100000  0.000000    0.00200000  10 t-inv F
 -0.100000 -0.400000  0.000000    0.00200000  10 t-inv F
  0.400000 -0.100000  0.000000    0.00200000  10 t-inv F
  0.100000  0.400000  0.000000    0.00200000  10 t-inv F
  0.100000 -0.500000  0.000000    0.00200000  11 t-inv F
 -0.500000 -0.100000  0.000000    0.00200000  11 t-inv F
 -0.100000  0.500000  0.000000    0.00200000  11 t-inv F
  0.200000 -0.200000  0.000000    0.00200000  12 t-inv F
 -0.200000 -0.200000  0.000000    0.00200000  12 t-inv F
 -0.200000  0.200000  0.000000    0.00200000  12 t-inv F
  0.200000 -0.300000  0.000000    0.00200000  13 t-inv F
 -0.300000 -0.200000  0.000000    0.00200000  13 t-inv F
 -0.200000  0.300000  0.000000    0.00200000  13 t-inv F
 -0.300000  0.200000  0.000000    0.00200000  13 t-inv F
 -0.200000 -0.300000  0.000000    0.00200000  13 t-inv F
  0.300000 -0.200000  0.000000    0.00200000  13 t-inv F
  0.200000  0.300000  0.000000    0.00200000  13 t-inv F
  0.200000 -0.400000  0.000000    0.00200000  14 t-inv F
 -0.400000 -0.200000  0.000000    0.00200000  14 t-inv F
 -0.200000  0.400000  0.000000    0.00200000  14 t-inv F
 -0.400000  0.200000  0.000000    0.00200000  14 t-inv F
 -0.200000 -0.400000  0.000000    0.00200000  14 t-inv F
  0.400000 -0.200000  0.000000    0.00200000  14 t-inv F
  0.200000  0.400000  0.000000    0.00200000  14 t-inv F
  0.200000 -0.500000  0.000000    0.00200000  15 t-inv F
 -0.500000 -0.200000  0.000000    0.00200000  15 t-inv F
 -0.200000  0.500000  0.000000    0.00200000  15 t-inv F
  0.300000 -0.300000  0.000000    0.00200000  16 t-inv F
 -0.300000 -0.300000  0.000000    0.00200000  16 t-inv F
 -0.300000  0.300000  0.000000    0.00200000  16 t-inv F
  0.300000 -0.400000  0.000000    0.00200000  17 t-inv F
 -0.400000 -0.300000  0.000000    0.00200000  17 t-inv F
 -0.300000  0.400000  0.000000    0.00200000  17 t-inv F
 -0.400000  0.300000  0.000000    0.00200000  17 t-inv F
 -0.300000 -0.400000  0.000000    0.00200000  17 t-inv F
  0.400000 -0.300000  0.000000    0.00200000  17 t-inv F
  0.300000  0.400000  0.000000    0.00200000  17 t-inv F
  0.300000 -0.500000  0.000000    0.00200000  18 t-inv F
 -0.500000 -0.300000  0.000000    0.00200000  18 t-inv F
 -0.300000  0.500000  0.000000    0.00200000  18 t-inv F
  0.400000 -0.400000  0.000000    0.00200000  19 t-inv F
 -0.400000 -0.400000  0.000000    0.00200000  19 t-inv F
 -0.400000  0.400000  0.000000    0.00200000  19 t-inv F
  0.400000 -0.500000  0.000000    0.00200000  20 t-inv F
 -0.500000 -0.400000  0.000000    0.00200000  20 t-inv F
 -0.400000  0.500000  0.000000    0.00200000  20 t-inv F
  0.000000  0.000000 -0.200000    0.00200000  22 t-inv F
  0.000000 -0.100000 -0.200000    0.00200000  23 t-inv F
 -0.100000  0.000000  0.200000    0.00200000  23 t-inv F
  0.000000  0.100000 -0.200000    0.00200000  23 t-inv F
 -0.100000  0.000000 -0.200000    0.00200000  23 t-inv F
  0.000000 -0.100000  0.200000    0.00200000  23 t-inv F
  0.100000  0.000000 -0.200000    0.00200000  23 t-inv F
  0.000000  0.100000  0.200000    0.00200000  23 t-inv F
  0.000000 -0.200000 -0.200000    0.00200000  24 t-inv F
 -0.200000  0.000000  0.200000    0.00200000  24 t-inv F
  0.000000  0.200000 -0.200000    0.00200000  24 t-inv F
 -0.200000  0.000000 -0.200000    0.00200000  24 t-inv F
  0.000000 -0.200000  0.200000    0.00200000  24 t-inv F
  0.200000  0.000000 -0.200000    0.00200000  24 t-inv F
  0.000000  0.200000  0.200000    0.00200000  24 t-inv F
  0.000000 -0.300000 -0.200000    0.00200000  25 t-inv F
 -0.300000  0.000000  0.200000    0.00200000  25 t-inv F
  0.000000  0.300000 -0.200000    0.00200000  25 t-inv F
 -0.300000  0.000000 -0.200000    0.00200000  25 t-inv F
  0.000000 -0.300000  0.200000    0.00200000  25 t-inv F
  0.300000  0.000000 -0.200000    0.00200000  25 t-inv F
  0.000000  0.300000  0.200000    0.00200000  25 t-inv F
  0.000000 -0.400000 -0.200000    0.00200000  26 t-inv F
 -0.400000  0.000000  0.200000    0.00200000  26 t-inv F
  0.000000  0.400000 -0.200000    0.00200000  26 t-inv F
 -0.400000  0.000000 -0.200000    0.00200000  26 t-inv F
  0.000000 -0.400000  0.200000    0.00200000  26 t-inv F
  0.400000  0.000000 -0.200000    0.00200000  26 t-inv F
  0.000000  0.400000  0.200000    0.00200000  26 t-inv F
  0.000000 -0.500000 -0.200000    0.00200000  27 t-inv F
 -0.500000  0.000000 -0.200000    0.00200000  27 t-inv F
  0.000000 -0.500000  0.200000    0.00200000  27 t-inv F
  0.100000 -0.100000 -0.200000    0.00200000  28 t-inv F
 -0.100000 -0.100000  0.200000    0.00200000  28 t-inv F
 -0.100000  0.100000 -0.200000    0.00200000  28 t-inv F
  0.100000 -0.200000 -0.200000    0.00200000  29 t-inv F
 -0.200000 -0.100000  0.200000    0.00200000  29 t-inv F
 -0.100000  0.200000 -0.200000    0.00200000  29 t-inv F
 -0.200000  0.100000 -0.200000    0.00200000  29 t-inv F
 -0.100000 -0.200000  0.200000    0.00200000  29 t-inv F
  0.200000 -0.100000 -0.200000    0.00200000  29 t-inv F
  0.100000  0.200000  0.200000    0.00200000  29 t-inv F
  0.100000 -0.300000 -0.200000    0.00200000  30 t-inv F
 -0.300000 -0.100000  0.200000    0.00200000  30 t-inv F
 -0.100000  0.300000 -0.200000    0.00200000  30 t-inv F
 -0.300000  0.100000 -0.200000    0.00200000  30 t-inv F
 -0.100000 -0.300000  0.200000    0.00200000  30 t-inv F
  0.300000 -0.100000 -0.200000    0.00200000  30 t-inv F
  0.100000  0.300000  0.200000    0.00200000  30 t-inv F
  0.100000 -0.400000 -0.200000    0.00200000  31 t-inv F
 -0.400000 -0.100000  0.200000    0.00200000  31 t-inv F
 -0.100000  0.400000 -0.200000    0.00200000  31 t-inv F
 -0.400000  0.100000 -0.200000    0.00200000  31 t-inv F
 -0.100000 -0.400000  0.200000    0.00200000  31 t-inv F
  0.400000 -0.100000 -0.200000    0.00200000  31 t-inv F
  0.100000  0.400000  0.200000    0.00200000  31 t-inv F
  0.100000 -0.500000 -0.200000    0.00200000  32 t-inv F
 -0.500000 -0.100000  0.200000    0.00200000  32 t-inv F
 -0.100000  0.500000 -0.200000    0.00200000  32 t-inv F
 -0.500000  0.100000 -0.200000    0.00200000  32 t-inv F
 -0.100000 -0.500000  0.200000    0.00200000  32 t-inv F
  0.500000 -0.100000 -0.200000    0.00200000  32 t-inv F
  0.100000  0.500000  0.200000    0.00200000  32 t-inv F
  0.200000 -0.200000 -0.200000    0.00200000  33 t-inv F
 -0.200000 -0.200000  0.200000    0.00200000  33 t-inv F
 -0.200000  0.200000 -0.200000    0.00200000  33 t-inv F
  0.200000 -0.300000 -0.200000    0.00200000  34 t-inv F
 -0.300000 -0.200000  0.200000    0.00200000  34 t-inv F
 -0.200000  0.300000 -0.200000    0.00200000  34 t-inv F
 -0.300000  0.200000 -0.200000    0.00200000  34 t-inv F
 -0.200000 -0.300000  0.200000    0.00200000  34 t-inv F
  0.300000 -0.200000 -0.200000    0.00200000  34 t-inv F
  0.200000  0.300000  0.200000    0.00200000  34 t-inv F
  0.200000 -0.400000 -0.200000    0.00200000  35 t-inv F
 -0.400000 -0.200000  0.200000    0.00200000  35 t-inv F
 -0.200000  0.400000 -0.200000    0.00200000  35 t-inv F
 -0.400000  0.200000 -0.200000    0.00200000  35 t-inv F
 -0.200000 -0.400000  0.200000    0.00200000  35 t-inv F
  0.400000 -0.200000 -0.200000    0.00200000  35 t-inv F
  0.200000  0.400000  0.200000    0.00200000  35 t-inv F
  0.200000 -0.500000 -0.200000    0.00200000  36 t-inv F
 -0.500000 -0.200000  0.200000    0.00200000  36 t-inv F
 -0.200000  0.500000 -0.200000    0.00200000  36 t-inv F
 -0.500000  0.200000 -0.200000    0.00200000  36 t-inv F
 -0.200000 -0.500000  0.200000    0.00200000  36 t-inv F
  0.500000 -0.200000 -0.200000    0.00200000  36 t-inv F
  0.200000  0.500000  0.200000    0.00200000  36 t-inv F
  0.300000 -0.300000 -0.200000    0.00200000  37 t-inv F
 -0.300000 -0.300000  0.200000    0.00200000  37 t-inv F
 -0.300000  0.300000 -0.200000    0.00200000  37 t-inv F
  0.300000 -0.400000 -0.200000    0.00200000  38 t-inv F
 -0.400000 -0.300000  0.200000    0.00200000  38 t-inv F
 -0.300000  0.400000 -0.200000    0.00200000  38 t-inv F
 -0.400000  0.300000 -0.200000    0.00200000  38 t-inv F
 -0.300000 -0.400000  0.200000    0.00200000  38 t-inv F
  0.400000 -0.300000 -0.200000    0.00200000  38 t-inv F
  0.300000  0.400000  0.200000    0.00200000  38 t-inv F
  0.300000 -0.500000 -0.200000    0.00200000  39 t-inv F
 -0.500000 -0.300000  0.200000    0.00200000  39 t-inv F
 -0.300000  0.500000 -0.200000    0.00200000  39 t-inv F
 -0.500000  0.300000 -0.200000    0.00200000  39 t-inv F
 -0.300000 -0.500000  0.200000    0.00200000  39 t-inv F
  0.500000 -0.300000 -0.200000    0.00200000  39 t-inv F
  0.300000  0.500000  0.200000    0.00200000  39 t-inv F
  0.400000 -0.400000 -0.200000    0.00200000  40 t-inv F
 -0.400000 -0.400000  0.200000    0.00200000  40 t-inv F
 -0.400000  0.400000 -0.200000    0.00200000  40 t-inv F
  0.400000 -0.500000 -0.200000    0.00200000  41 t-inv F
 -0.500000 -0.400000  0.200000    0.00200000  41 t-inv F
 -0.400000  0.500000 -0.200000    0.00200000  41 t-inv F
 -0.500000  0.400000 -0.200000    0.00200000  41 t-inv F
 -0.400000 -0.500000  0.200000    0.00200000  41 t-inv F
  0.500000 -0.400000 -0.200000    0.00200000  41 t-inv F
  0.400000  0.500000  0.200000    0.00200000  41 t-inv F
  0.500000 -0.500000 -0.200000    0.00200000  42 t-inv F
  0.000000  0.000000 -0.400000    0.00200000  43 t-inv F
  0.000000 -0.100000 -0.400000    0.00200000  44 t-inv F
 -0.100000  0.000000  0.400000    0.00200000  44 t-inv F
  0.000000  0.100000 -0.400000    0.00200000  44 t-inv F
 -0.100000  0.000000 -0.400000    0.00200000  44 t-inv F
  0.000000 -0.100000  0.400000    0.00200000  44 t-inv F
  0.100000  0.000000 -0.400000    0.00200000  44 t-inv F
  0.000000  0.100000  0.400000    0.00200000  44 t-inv F
  0.000000 -0.200000 -0.400000    0.00200000  45 t-inv F
 -0.200000  0.000000  0.400000    0.00200000  45 t-inv F
  0.000000  0.200000 -0.400000    0.00200000  45 t-inv F
 -0.200000  0.000000 -0.400000    0.00200000  45 t-inv F
  0.000000 -0.200000  0.400000    0.00200000  45 t-inv F
  0.200000  0.000000 -0.400000    0.00200000  45 t-inv F
  0.000000  0.200000  0.400000    0.00200000  45 t-inv F
  0.000000 -0.300000 -0.400000    0.00200000  46 t-inv F
 -0.300000  0.000000  0.400000    0.00200000  46 t-inv F
  0.000000  0.300000 -0.400000    0.00200000  46 t-inv F
 -0.300000  0.000000 -0.400000    0.00200000  46 t-inv F
  0.000000 -0.300000  0.400000    0.00200000  46 t-inv F
  0.300000  0.000000 -0.400000    0.00200000  46 t-inv F
  0.000000  0.300000  0.400000    0.00200000  46 t-inv F
  0.000000 -0.400000 -0.400000    0.00200000  47 t-inv F
 -0.400000  0.000000  0.400000    0.00200000  47 t-inv F
  0.000000  0.400000 -0.400000    0.00200000  47 t-inv F
 -0.400000  0.000000 -0.400000    0.00200000  47 t-inv F
  0.000000 -0.400000  0.400000    0.00200000  47 t-inv F
  0.400000  0.000000 -0.400000    0.00200000  47 t-inv F
  0.000000  0.400000  0.400000    0.00200000  47 t-inv F
  0.000000 -0.500000 -0.400000    0.00200000  48 t-inv F
 -0.500000  0.000000 -0.400000    0.00200000  48 t-inv F
  0.000000 -0.500000  0.400000    0.00200000  48 t-inv F
  0.100000 -0.100000 -0.400000    0.00200000  49 t-inv F
 -0.100000 -0.100000  0.400000    0.00200000  49 t-inv F
 -0.100000  0.100000 -0.400000    0.00200000  49 t-inv F
  0.100000 -0.200000 -0.400000    0.00200000  50 t-inv F
 -0.200000 -0.100000  0.400000    0.00200000  50 t-inv F
 -0.100000  0.200000 -0.400000    0.00200000  50 t-inv F
 -0.200000  0.100000 -0.400000    0.00200000  50 t-inv F
 -0.100000 -0.200000  0.400000    0.00200000  50 t-inv F
  0.200000 -0.100000 -0.400000    0.00200000  50 t-inv F
  0.100000  0.200000  0.400000    0.00200000  50 t-inv F
  0.100000 -0.300000 -0.400000    0.00200000  51 t-inv F
 -0.300000 -0.100000  0.400000    0.00200000  51 t-inv F
 -0.100000  0.300000 -0.400000    0.00200000  51 t-inv F
 -0.300000  0.100000 -0.400000    0.00200000  51 t-inv F
 -0.100000 -0.300000  0.400000    0.00200000  51 t-inv F
  0.300000 -0.100000 -0.400000    0.00200000  51 t-inv F
  0.100000  0.300000  0.400000    0.00200000  51 t-inv F
  0.100000 -0.400000 -0.400000    0.00200000  52 t-inv F
 -0.400000 -0.100000  0.400000    0.00200000  52 t-inv F
 -0.100000  0.400000 -0.400000    0.00200000  52 t-inv F
 -0.400000  0.100000 -0.400000    0.00200000  52 t-inv F
 -0.100000 -0.400000  0.400000    0.00200000  52 t-inv F
  0.400000 -0.100000 -0.400000    0.00200000  52 t-inv F
  0.100000  0.400000  0.400000    0.00200000  52 t-inv F
  0.100000 -0.500000 -0.400000    0.00200000  53 t-inv F
 -0.500000 -0.100000  0.400000    0.00200000  53 t-inv F
 -0.100000  0.500000 -0.400000    0.00200000  53 t-inv F
 -0.500000  0.100000 -0.400000    0.00200000  53 t-inv F
 -0.100000 -0.500000  0.400000    0.00200000  53 t-inv F
  0.500000 -0.100000 -0.400000    0.00200000  53 t-inv F
  0.100000  0.500000  0.400000    0.00200000  53 t-inv F
  0.200000 -0.200000 -0.400000    0.00200000  54 t-inv F
 -0.200000 -0.200000  0.400000    0.00200000  54 t-inv F
 -0.200000  0.200000 -0.400000    0.00200000  54 t-inv F
  0.200000 -0.300000 -0.400000    0.00200000  55 t-inv F
 -0.300000 -0.200000  0.400000    0.00200000  55 t-inv F
 -0.200000  0.300000 -0.400000    0.00200000  55 t-inv F
 -0.300000  0.200000 -0.400000    0.00200000  55 t-inv F
 -0.200000 -0.300000  0.400000    0.00200000  55 t-inv F
  0.300000 -0.200000 -0.400000    0.00200000  55 t-inv F
  0.200000  0.300000  0.400000    0.00200000  55 t-inv F
  0.200000 -0.400000 -0.400000    0.00200000  56 t-inv F
 -0.400000 -0.200000  0.400000    0.00200000  56 t-inv F
 -0.200000  0.400000 -0.400000    0.00200000  56 t-inv F
 -0.400000  0.200000 -0.400000    0.00200000  56 t-inv F
 -0.200000 -0.400000  0.400000    0.00200000  56 t-inv F
  0.400000 -0.200000 -0.400000    0.00200000  56 t-inv F
  0.200000  0.400000  0.400000    0.00200000  56 t-inv F
  0.200000 -0.500000 -0.400000    0.00200000  57 t-inv F
 -0.500000 -0.200000  0.400000    0.00200000  57 t-inv F
 -0.200000  0.500000 -0.400000    0.00200000  57 t-inv F
 -0.500000  0.200000 -0.400000    0.00200000  57 t-inv F
 -0.200000 -0.500000  0.400000    0.00200000  57 t-inv F
  0.500000 -0.200000 -0.400000    0.00200000  57 t-inv F
  0.200000  0.500000  0.400000    0.00200000  57 t-inv F
  0.300000 -0.300000 -0.400000    0.00200000  58 t-inv F
 -0.300000 -0.300000  0.400000    0.00200000  58 t-inv F
 -0.300000  0.300000 -0.400000    0.00200000  58 t-inv F
  0.300000 -0.400000 -0.400000    0.00200000  59 t-inv F
 -0.400000 -0.300000  0.400000    0.00200000  59 t-inv F
 -0.300000  0.400000 -0.400000    0.00200000  59 t-inv F
 -0.400000  0.300000 -0.400000    0.00200000  59 t-inv F
 -0.300000 -0.400000  0.400000    0.00200000  59 t-inv F
  0.400000 -0.300000 -0.400000    0.00200000  59 t-inv F
  0.300000  0.400000  0.400000    0.00200000  59 t-inv F
  0.300000 -0.500000 -0.400000    0.00200000  60 t-inv F
 -0.500000 -0.300000  0.400000    0.00200000  60 t-inv F
 -0.300000  0.500000 -0.400000    0.00200000  60 t-inv F
 -0.500000  0.300000 -0.400000    0.00200000  60 t-inv F
 -0.300000 -0.500000  0.400000    0.00200000  60 t-inv F
  0.500000 -0.300000 -0.400000    0.00200000  60 t-inv F
  0.300000  0.500000  0.400000    0.00200000  60 t-inv F
  0.400000 -0.400000 -0.400000    0.00200000  61 t-inv F
 -0.400000 -0.400000  0.400000    0.00200000  61 t-inv F
 -0.400000  0.400000 -0.400000    0.00200000  61 t-inv F
  0.400000 -0.500000 -0.400000    0.00200000  62 t-inv F
 -0.500000 -0.400000  0.400000    0.00200000  62 t-inv F
 -0.400000  0.500000 -0.400000    0.00200000  62 t-inv F
 -0.500000  0.400000 -0.400000    0.00200000  62 t-inv F
 -0.400000 -0.500000  0.400000    0.00200000  62 t-inv F
  0.500000 -0.400000 -0.400000    0.00200000  62 t-inv F
  0.400000  0.500000  0.400000    0.00200000  62 t-inv F
  0.500000 -0.500000 -0.400000    0.00200000  63 t-inv F
 -0.100000 -0.100000 -0.200000    0.00200000  28 t-inv T
 -0.100000  0.100000  0.200000    0.00200000  28 t-inv T
  0.100000  0.100000 -0.200000    0.00200000  28 t-inv T
  0.100000 -0.100000  0.200000    0.00200000  28 t-inv T
 -0.200000 -0.100000 -0.200000    0.00200000  29 t-inv T
 -0.100000  0.200000  0.200000    0.00200000  29 t-inv T
  0.200000  0.100000 -0.200000    0.00200000  29 t-inv T
  0.100000 -0.200000  0.200000    0.00200000  29 t-inv T
  0.200000 -0.100000  0.200000    0.00200000  29 t-inv T
  0.100000  0.200000 -0.200000    0.00200000  29 t-inv T
 -0.200000  0.100000  0.200000    0.00200000  29 t-inv T
 -0.100000 -0.200000 -0.200000    0.00200000  29 t-inv T
 -0.300000 -0.100000 -0.200000    0.00200000  30 t-inv T
 -0.100000  0.300000  0.200000    0.00200000  30 t-inv T
  0.300000  0.100000 -0.200000    0.00200000  30 t-inv T
  0.100000 -0.300000  0.200000    0.00200000  30 t-inv T
  0.300000 -0.100000  0.200000    0.00200000  30 t-inv T
  0.100000  0.300000 -0.200000    0.00200000  30 t-inv T
 -0.300000  0.100000  0.200000    0.00200000  30 t-inv T
 -0.100000 -0.300000 -0.200000    0.00200000  30 t-inv T
 -0.400000 -0.100000 -0.200000    0.00200000  31 t-inv T
 -0.100000  0.400000  0.200000    0.00200000  31 t-inv T
  0.400000  0.100000 -0.200000    0.00200000  31 t-inv T
  0.100000 -0.400000  0.200000    0.00200000  31 t-inv T
  0.400000 -0.100000  0.200000    0.00200000  31 t-inv T
  0.100000  0.400000 -0.200000    0.00200000  31 t-inv T
 -0.400000  0.100000  0.200000    0.00200000  31 t-inv T
 -0.100000 -0.400000 -0.200000    0.00200000  31 t-inv T
 -0.200000 -0.200000 -0.200000    0.00200000  33 t-inv T
 -0.200000  0.200000  0.200000    0.00200000  33 t-inv T
  0.200000  0.200000 -0.200000    0.00200000  33 t-inv T
  0.200000 -0.200000  0.200000    0.00200000  33 t-inv T
 -0.300000 -0.200000 -0.200000    0.00200000  34 t-inv T
 -0.200000  0.300000  0.200000    0.00200000  34 t-inv T
  0.300000  0.200000 -0.200000    0.00200000  34 t-inv T
  0.200000 -0.300000  0.200000    0.00200000  34 t-inv T
  0.300000 -0.200000  0.200000    0.00200000  34 t-inv T
  0.200000  0.300000 -0.200000    0.00200000  34 t-inv T
 -0.300000  0.200000  0.200000    0.00200000  34 t-inv T
 -0.200000 -0.300000 -0.200000    0.00200000  34 t-inv T
 -0.400000 -0.200000 -0.200000    0.00200000  35 t-inv T
 -0.200000  0.400000  0.200000    0.00200000  35 t-inv T
  0.400000  0.200000 -0.200000    0.00200000  35 t-inv T
  0.200000 -0.400000  0.200000    0.00200000  35 t-inv T
  0.400000 -0.200000  0.200000    0.00200000  35 t-inv T
  0.200000  0.400000 -0.200000    0.00200000  35 t-inv T
 -0.400000  0.200000  0.200000    0.00200000  35 t-inv T
 -0.200000 -0.400000 -0.200000    0.00200000  35 t-inv T
 -0.300000 -0.300000 -0.200000    0.00200000  37 t-inv T
 -0.300000  0.300000  0.200000    0.00200000  37 t-inv T
  0.300000  0.300000 -0.200000    0.00200000  37 t-inv T
  0.300000 -0.300000  0.200000    0.00200000  37 t-inv T
 -0.400000 -0.300000 -0.200000    0.00200000  38 t-inv T
 -0.300000  0.400000  0.200000    0.00200000  38 t-inv T
  0.400000  0.300000 -0.200000    0.00200000  38 t-inv T
  0.300000 -0.400000  0.200000    0.00200000  38 t-inv T
  0.400000 -0.300000  0.200000    0.00200000  38 t-inv T
  0.300000  0.400000 -0.200000    0.00200000  38 t-inv T
 -0.400000  0.300000  0.200000    0.00200000  38 t-inv T
 -0.300000 -0.400000 -0.200000    0.00200000  38 t-inv T
 -0.400000 -0.400000 -0.200000    0.00200000  40 t-inv T
 -0.400000  0.400000  0.200000    0.00200000  40 t-inv T
  0.400000  0.400000 -0.200000    0.00200000  40 t-inv T
  0.400000 -0.400000  0.200000    0.00200000  40 t-inv T
 -0.100000 -0.100000 -0.400000    0.00200000  49 t-inv T
 -0.100000  0.100000  0.400000    0.00200000  49 t-inv T
  0.100000  0.100000 -0.400000    0.00200000  49 t-inv T
  0.100000 -0.100000  0.400000    0.00200000  49 t-inv T
 -0.200000 -0.100000 -0.400000    0.00200000  50 t-inv T
 -0.100000  0.200000  0.400000    0.00200000  50 t-inv T
  0.200000  0.100000 -0.400000    0.00200000  50 t-inv T
  0.100000 -0.200000  0.400000    0.00200000  50 t-inv T
  0.200000 -0.100000  0.400000    0.00200000  50 t-inv T
  0.100000  0.200000 -0.400000    0.00200000  50 t-inv T
 -0.200000  0.100000  0.400000    0.00200000  50 t-inv T
 -0.100000 -0.200000 -0.400000    0.00200000  50 t-inv T
 -0.300000 -0.100000 -0.400000    0.00200000  51 t-inv T
 -0.100000  0.300000  0.400000    0.00200000  51 t-inv T
  0.300000  0.100000 -0.400000    0.00200000  51 t-inv T
  0.100000 -0.300000  0.400000    0.00200000  51 t-inv T
  0.300000 -0.100000  0.400000    0.00200000  51 t-inv T
  0.100000  0.300000 -0.400000    0.00200000  51 t-inv T
 -0.300000  0.100000  0.400000    0.00200000  51 t-inv T
 -0.100000 -0.300000 -0.400000    0.00200000  51 t-inv T
 -0.400000 -0.100000 -0.400000    0.00200000  52 t-inv T
 -0.100000  0.400000  0.400000    0.00200000  52 t-inv T
  0.400000  0.100000 -0.400000    0.00200000  52 t-inv T
  0.100000 -0.400000  0.400000    0.00200000  52 t-inv T
  0.400000 -0.100000  0.400000    0.00200000  52 t-inv T
  0.100000  0.400000 -0.400000    0.00200000  52 t-inv T
 -0.400000  0.100000  0.400000    0.00200000  52 t-inv T
 -0.100000 -0.400000 -0.400000    0.00200000  52 t-inv T
 -0.200000 -0.200000 -0.400000    0.00200000  54 t-inv T
 -0.200000  0.200000  0.400000    0.00200000  54 t-inv T
  0.200000  0.200000 -0.400000    0.00200000  54 t-inv T
  0.200000 -0.200000  0.400000    0.00200000  54 t-inv T
 -0.300000 -0.200000 -0.400000    0.00200000  55 t-inv T
 -0.200000  0.300000  0.400000    0.00200000  55 t-inv T
  0.300000  0.200000 -0.400000    0.00200000  55 t-inv T
  0.200000 -0.300000  0.400000    0.00200000  55 t-inv T
  0.300000 -0.200000  0.400000    0.00200000  55 t-inv T
  0.200000  0.300000 -0.400000    0.00200000  55 t-inv T
 -0.300000  0.200000  0.400000    0.00200000  55 t-inv T
 -0.200000 -0.300000 -0.400000    0.00200000  55 t-inv T
 -0.400000 -0.200000 -0.400000    0.00200000  56 t-inv T
 -0.200000  0.400000  0.400000    0.00200000  56 t-inv T
  0.400000  0.200000 -0.400000    0.00200000  56 t-inv T
  0.200000 -0.400000  0.400000    0.00200000  56 t-inv T
  0.400000 -0.200000  0.400000    0.00200000  56 t-inv T
  0.200000  0.400000 -0.400000    0.00200000  56 t-inv T
 -0.400000  0.200000  0.400000    0.00200000  56 t-inv T
 -0.200000 -0.400000 -0.400000    0.00200000  56 t-inv T
 -0.300000 -0.300000 -0.400000    0.00200000  58 t-inv T
 -0.300000  0.300000  0.400000    0.00200000  58 t-inv T
  0.300000  0.300000 -0.400000    0.00200000  58 t-inv T
  0.300000 -0.300000  0.400000    0.00200000  58 t-inv T
 -0.400000 -0.300000 -0.400000    0.00200000  59 t-inv T
 -0.300000  0.400000  0.400000    0.00200000  59 t-inv T
  0.400000  0.300000 -0.400000    0.00200000  59 t-inv T
  0.300000 -0.400000  0.400000    0.00200000  59 t-inv T
  0.400000 -0.300000  0.400000    0.00200000  59 t-inv T
  0.300000  0.400000 -0.400000    0.00200000  59 t-inv T
 -0.400000  0.300000  0.400000    0.00200000  59 t-inv T
 -0.300000 -0.400000 -0.400000    0.00200000  59 t-inv T
 -0.400000 -0.400000 -0.400000    0.00200000  61 t-inv T
 -0.400000  0.400000  0.400000    0.00200000  61 t-inv T
  0.400000  0.400000 -0.400000    0.00200000  61 t-inv T
  0.400000 -0.400000  0.400000    0.00200000  61 t-inv T
 -----------------------------------------------------------------------------
|                                                                             |
|           W    W    AA    RRRRR   N    N  II  N    N   GGGG   !!!           |
|           W    W   A  A   R    R  NN   N  II  NN   N  G    G  !!!           |
|           W    W  A    A  R    R  N N  N  II  N N  N  G       !!!           |
|           W WW W  AAAAAA  RRRRR   N  N N  II  N  N N  G  GGG   !            |
|           WW  WW  A    A  R   R   N   NN  II  N   NN  G    G                |
|           W    W  A    A  R    R  N    N  II  N    N   GGGG   !!!           |
|                                                                             |
|     The number of bands has been changed from the values supplied in        |
|     the INCAR file. This is a result of running the parallel version.       |
|     The orbitals not found in the WAVECAR file will be initialized with     |
|     random numbers, which is usually adequate. For correlated               |
|     calculations, however, you should redo the groundstate calculation.     |
|     I found NBANDS = 640. Now, NBANDS = 642.                                |
|                                                                             |
 -----------------------------------------------------------------------------



--------------------------------------------------------------------------------------------------------




 Dimension of arrays:
   k-points           NKPTS =     63   k-points in BZ     NKDIM =    500   number of bands    NBANDS=    642
   number of dos      NEDOS =    301   number of ions     NIONS =     16
   non local maximal  LDIM  =      6   non local SUM 2l+1 LMDIM =     18
   total plane-waves  NPLWV =  90720
   max r-space proj   IRMAX =   4012   max aug-charges    IRDMAX=  81658
   dimension x,y,z NGX =    36 NGY =   36 NGZ =   70
   dimension x,y,z NGXF=    72 NGYF=   72 NGZF=  140
   support grid    NGXF=   144 NGYF=  144 NGZF=  280
   ions per type =               4   4   8
   NGX,Y,Z   is equivalent  to a cutoff of  10.35, 10.35, 10.02 a.u.
   NGXF,Y,Z  is equivalent  to a cutoff of  20.70, 20.70, 20.03 a.u.

 SYSTEM =  CuInSe                                  
 POSCAR =  Cu1-In1-Se2 'I -4 2 d'  #122            

 Startparameter for this run:
   NWRITE =      2    write-flag & timer
   PREC   = accura    normal or accurate (medium, high low for compatibility)
   ISTART =      1    job   : 0-new  1-cont  2-samecut
   ICHARG =      0    charge: 1-file 2-atom 10-const
   ISPIN  =      1    spin polarized calculation?
   LNONCOLLINEAR =      F non collinear calculations
   LSORBIT =      F    spin-orbit coupling
   INIWAV =      1    electr: 0-lowe 1-rand  2-diag
   LASPH  =      F    aspherical Exc in radial PAW
   METAGGA=      F    non-selfconsistent MetaGGA calc.

 Electronic Relaxation 1
   ENCUT  =  300.0 eV  22.05 Ry    4.70 a.u.   8.17  8.17 16.41*2*pi/ulx,y,z
   ENINI  =  300.0     initial cutoff
   ENAUG  =  516.5 eV  augmentation charge cutoff
   NELM   =     60;   NELMIN=  3; NELMDL=  0     # of ELM steps 
   EDIFF  = 0.1E-04   stopping-criterion for ELM
   LREAL  =      T    real-space projection
   NLSPLINE    = F    spline interpolate recip. space projectors
   LCOMPAT=      F    compatible to vasp.4.4
   GGA_COMPAT  = T    GGA compatible to vasp.4.4-vasp.4.6
   LMAXPAW     = -100 max onsite density
   LMAXMIX     =    4 max onsite mixed and CHGCAR
   VOSKOWN=      0    Vosko Wilk Nusair interpolation
   ROPT   =   -0.00025  -0.00025  -0.00025
 Ionic relaxation
   EDIFFG = 0.1E-03   stopping-criterion for IOM
   NSW    =      0    number of steps for IOM
   NBLOCK =      1;   KBLOCK =      1    inner block; outer block 
   IBRION =     -1    ionic relax: 0-MD 1-quasi-New 2-CG
   NFREE  =      0    steps in history (QN), initial steepest desc. (CG)
   ISIF   =      0    stress and relaxation
   IWAVPR =     10    prediction:  0-non 1-charg 2-wave 3-comb
   ISYM   =      3    0-nonsym 1-usesym 2-fastsym
   LCORR  =      T    Harris-Foulkes like correction to forces

   POTIM  = 0.5000    time-step for ionic-motion
   TEIN   =    0.0    initial temperature
   TEBEG  =    0.0;   TEEND  =   0.0 temperature during run
   SMASS  =  -3.00    Nose mass-parameter (am)
   estimated Nose-frequenzy (Omega)   =  0.10E-29 period in steps = 0.13E+47 mass=  -0.764E-27a.u.
   SCALEE = 1.0000    scale energy and forces
   NPACO  =    256;   APACO  = 16.0  distance and # of slots for P.C.
   PSTRESS=    0.0 pullay stress

  Mass of Ions in am
   POMASS =  63.55114.82 78.96
  Ionic Valenz
   ZVAL   =  11.00 13.00  6.00
  Atomic Wigner-Seitz radii
   RWIGS  =  -1.00 -1.00 -1.00
  virtual crystal weights 
   VCA    =   1.00  1.00  1.00
   NELECT =     144.0000    total number of electrons
   NUPDOWN=      -1.0000    fix difference up-down

 DOS related values:
   EMIN   =  10.00;   EMAX   =-10.00  energy-range for DOS
   EFERMI =   0.00
   ISMEAR =     0;   SIGMA  =   0.01  broadening in eV -4-tet -1-fermi 0-gaus

 Electronic relaxation 2 (details)
   IALGO  =     38    algorithm
   LDIAG  =      T    sub-space diagonalisation (order eigenvalues)
   LSUBROT=      F    optimize rotation matrix (better conditioning)
   TURBO    =      0    0=normal 1=particle mesh
   IRESTART =      0    0=no restart 2=restart with 2 vectors
   NREBOOT  =      0    no. of reboots
   NMIN     =      0    reboot dimension
   EREF     =   0.00    reference energy to select bands
   IMIX   =      1    mixing-type and parameters
     AMIX     =   0.40;   BMIX     =  1.00
     AMIX_MAG =   1.60;   BMIX_MAG =  1.00
     AMIN     =   0.10
     WC   =   100.;   INIMIX=   1;  MIXPRE=   1;  MAXMIX= -45

 Intra band minimization:
   WEIMIN = 0.0000     energy-eigenvalue tresh-hold
   EBREAK =  0.39E-08  absolut break condition
   DEPER  =   0.30     relativ break condition  

   TIME   =   0.40     timestep for ELM

  volume/ion in A,a.u.               =      24.28       163.86
  Fermi-wavevector in a.u.,A,eV,Ry     =   1.175975  2.222271 18.815737  1.382918
  Thomas-Fermi vector in A             =   2.312347
 
 Write flags
   LWAVE        =      T    write WAVECAR
   LDOWNSAMPLE  =      F    k-point downsampling of WAVECAR
   LCHARG       =      T    write CHGCAR
   LVTOT        =      F    write LOCPOT, total local potential
   LVHAR        =      F    write LOCPOT, Hartree potential only
   LELF         =      F    write electronic localiz. function (ELF)
   LORBIT       =     11    0 simple, 1 ext, 2 COOP (PROOUT), +10 PAW based schemes


 Dipole corrections
   LMONO  =      F    monopole corrections only (constant potential shift)
   LDIPOL =      F    correct potential (dipole corrections)
   IDIPOL =      0    1-x, 2-y, 3-z, 4-all directions 
   EPSILON=  1.0000000 bulk dielectric constant

 Exchange correlation treatment:
   GGA     =    --    GGA type
   LEXCH   =     8    internal setting for exchange type
   VOSKOWN=      0    Vosko Wilk Nusair interpolation
   EXXOEP  =     0    0=HF, 1=EXX-LHF (local Hartree Fock) 2=EXX OEP
   LHFCALC =     T    Hartree Fock is set to
   LSYMGRAD=     F    symmetrize gradient (conserves proper symmetry)
   PRECFOCK=normal    Normal, Fast or Accurate (Low or Medium for compatibility)
   LRHFCALC=     F    long range Hartree Fock
   LRSCOR  =     F    long range correlation only (use DFT for short range part)
   LTHOMAS =     F    Thomas Fermi screening in HF
   LMODELHF=     F    short range full HF, long range fraction AEXX
   ENCUT4O =  -1.0   cutoff for four orbital integrals eV
   LMAXFOCK=     4    L truncation for augmentation on plane wave grid
   LMAXFOCKAE=  -1    L truncation for all-electron charge restoration on plane wave grid
   NMAXFOCKAE=   1    number of basis functions for all-electron charge restoration
   LFOCKAEDFT=     F  apply the AE augmentation even for DFT
   NKREDX  =     5    reduce k-point grid by
   NKREDY  =     5    reduce k-point grid by
   NKREDZ  =     5    reduce k-point grid by
   SHIFTRED=     F    shift reduced grid of Gamma
   HFKIDENT=     F    idential grid for each k-point
   ODDONLY =     F    use only odd q-grid points
   EVENONLY=     F    use only even q-grid points
   HFALPHA =   -1.0000 decay constant for conv. correction
   MCALPHA =    0.0000 extent of test-charge in conv. correction in multipole expansion
   AEXX    =    0.2500 exact exchange contribution
   HFSCREEN=    0.2000 screening length (either q_TF or 0.3 A-1)
   HFSCREENC=   0.2000 screening length for correlation (either q_TF or 0.3 A-1)
   HFRCUT  =    0.0000 spherical cutoff for potential kernel
   ALDAX   =    0.7500 LDA exchange part
   AGGAX   =    0.7500 GGA exchange part
   ALDAC   =    1.0000 LDA correlation
   AGGAC   =    1.0000 GGA correlation
   NBANDSGWLOW=     1    first orbital included in HF term
   ENCUTFOCK=  -1.0 apply spherical cutoff to Coloumb kernel
 Linear response parameters
   LEPSILON=     F    determine dielectric tensor
   LRPA    =     F    only Hartree local field effects (RPA)
   LNABLA  =     F    use nabla operator in PAW spheres
   LVEL    =     F    velocity operator in full k-point grid
   LINTERFAST=   F  fast interpolation
   KINTER  =     0    interpolate to denser k-point grid
   CSHIFT  =0.1000    complex shift for real part using Kramers Kronig
   OMEGAMAX=  -1.0    maximum frequency
   DEG_THRESHOLD= 0.2000000E-02 threshold for treating states as degnerate
   RTIME   =   -0.100 relaxation time in fs
  (WPLASMAI=    0.000 imaginary part of plasma frequency in eV, 0.658/RTIME)
   DFIELD  = 0.0000000 0.0000000 0.0000000 field for delta impulse in time
 
 Orbital magnetization related:
   ORBITALMAG=     F  switch on orbital magnetization
   LCHIMAG   =     F  perturbation theory with respect to B field
   DQ        =  0.001000  dq finite difference perturbation B field
   LLRAUG    =     F  two centre corrections for induced B field



--------------------------------------------------------------------------------------------------------


 Static calculation
 charge density and potential will be updated during run
 non-spin polarized calculation
 Variant of blocked Davidson
 Davidson routine will perform the subspace rotation
 perform sub-space diagonalisation
    after iterative eigenvector-optimisation
 Kerker-like  mixing scheme
 using additional bands          570
 real space projection scheme for non local part
 use partial core corrections
 calculate Harris-corrections to forces 
   (improved forces if not selfconsistent)
 use gradient corrections 
 use of overlap-Matrix (Vanderbilt PP)
 Gauss-broadening in eV      SIGMA  =   0.01


--------------------------------------------------------------------------------------------------------


  energy-cutoff  :      300.00
  volume of cell :      388.50
      direct lattice vectors                 reciprocal lattice vectors
     5.782400000  0.000000000  0.000000000     0.172938572  0.000000000  0.000000000
     0.000000000  5.782400000  0.000000000     0.000000000  0.172938572  0.000000000
     0.000000000  0.000000000 11.619200000     0.000000000  0.000000000  0.086064445

  length of vectors
     5.782400000  5.782400000 11.619200000     0.172938572  0.172938572  0.086064445


 
 old parameters found on file WAVECAR:
  energy-cutoff  :      300.00
  volume of cell :      388.50
      direct lattice vectors                 reciprocal lattice vectors
     5.782400000  0.000000000  0.000000000     0.172938572  0.000000000  0.000000000
     0.000000000  5.782400000  0.000000000     0.000000000  0.172938572  0.000000000
     0.000000000  0.000000000 11.619200000     0.000000000  0.000000000  0.086064445

  length of vectors

 
 k-points in units of 2pi/SCALE and weight: KPOINTS                                 
   0.00000000  0.00000000  0.00000000       0.002
   0.01729386  0.00000000  0.00000000       0.008
   0.03458771  0.00000000  0.00000000       0.008
   0.05188157  0.00000000  0.00000000       0.008
   0.06917543  0.00000000  0.00000000       0.008
   0.08646929  0.00000000  0.00000000       0.004
   0.01729386  0.01729386  0.00000000       0.008
   0.03458771  0.01729386  0.00000000       0.016
   0.05188157  0.01729386  0.00000000       0.016
   0.06917543  0.01729386  0.00000000       0.016
   0.08646929  0.01729386  0.00000000       0.008
   0.03458771  0.03458771  0.00000000       0.008
   0.05188157  0.03458771  0.00000000       0.016
   0.06917543  0.03458771  0.00000000       0.016
   0.08646929  0.03458771  0.00000000       0.008
   0.05188157  0.05188157  0.00000000       0.008
   0.06917543  0.05188157  0.00000000       0.016
   0.08646929  0.05188157  0.00000000       0.008
   0.06917543  0.06917543  0.00000000       0.008
   0.08646929  0.06917543  0.00000000       0.008
   0.08646929  0.08646929  0.00000000       0.002
   0.00000000  0.00000000  0.01721289       0.004
   0.01729386  0.00000000  0.01721289       0.016
   0.03458771  0.00000000  0.01721289       0.016
   0.05188157  0.00000000  0.01721289       0.016
   0.06917543  0.00000000  0.01721289       0.016
   0.08646929  0.00000000  0.01721289       0.008
   0.01729386  0.01729386  0.01721289       0.016
   0.03458771  0.01729386  0.01721289       0.032
   0.05188157  0.01729386  0.01721289       0.032
   0.06917543  0.01729386  0.01721289       0.032
   0.08646929  0.01729386  0.01721289       0.016
   0.03458771  0.03458771  0.01721289       0.016
   0.05188157  0.03458771  0.01721289       0.032
   0.06917543  0.03458771  0.01721289       0.032
   0.08646929  0.03458771  0.01721289       0.016
   0.05188157  0.05188157  0.01721289       0.016
   0.06917543  0.05188157  0.01721289       0.032
   0.08646929  0.05188157  0.01721289       0.016
   0.06917543  0.06917543  0.01721289       0.016
   0.08646929  0.06917543  0.01721289       0.016
   0.08646929  0.08646929  0.01721289       0.004
   0.00000000  0.00000000  0.03442578       0.004
   0.01729386  0.00000000  0.03442578       0.016
   0.03458771  0.00000000  0.03442578       0.016
   0.05188157  0.00000000  0.03442578       0.016
   0.06917543  0.00000000  0.03442578       0.016
   0.08646929  0.00000000  0.03442578       0.008
   0.01729386  0.01729386  0.03442578       0.016
   0.03458771  0.01729386  0.03442578       0.032
   0.05188157  0.01729386  0.03442578       0.032
   0.06917543  0.01729386  0.03442578       0.032
   0.08646929  0.01729386  0.03442578       0.016
   0.03458771  0.03458771  0.03442578       0.016
   0.05188157  0.03458771  0.03442578       0.032
   0.06917543  0.03458771  0.03442578       0.032
   0.08646929  0.03458771  0.03442578       0.016
   0.05188157  0.05188157  0.03442578       0.016
   0.06917543  0.05188157  0.03442578       0.032
   0.08646929  0.05188157  0.03442578       0.016
   0.06917543  0.06917543  0.03442578       0.016
   0.08646929  0.06917543  0.03442578       0.016
   0.08646929  0.08646929  0.03442578       0.004
 
 k-points in reciprocal lattice and weights: KPOINTS                                 
   0.00000000  0.00000000  0.00000000       0.002
   0.10000000  0.00000000  0.00000000       0.008
   0.20000000  0.00000000  0.00000000       0.008
   0.30000000  0.00000000  0.00000000       0.008
   0.40000000  0.00000000  0.00000000       0.008
   0.50000000  0.00000000  0.00000000       0.004
   0.10000000  0.10000000  0.00000000       0.008
   0.20000000  0.10000000  0.00000000       0.016
   0.30000000  0.10000000  0.00000000       0.016
   0.40000000  0.10000000  0.00000000       0.016
   0.50000000  0.10000000  0.00000000       0.008
   0.20000000  0.20000000  0.00000000       0.008
   0.30000000  0.20000000  0.00000000       0.016
   0.40000000  0.20000000  0.00000000       0.016
   0.50000000  0.20000000  0.00000000       0.008
   0.30000000  0.30000000  0.00000000       0.008
   0.40000000  0.30000000  0.00000000       0.016
   0.50000000  0.30000000  0.00000000       0.008
   0.40000000  0.40000000  0.00000000       0.008
   0.50000000  0.40000000  0.00000000       0.008
   0.50000000  0.50000000  0.00000000       0.002
   0.00000000  0.00000000  0.20000000       0.004
   0.10000000  0.00000000  0.20000000       0.016
   0.20000000  0.00000000  0.20000000       0.016
   0.30000000  0.00000000  0.20000000       0.016
   0.40000000  0.00000000  0.20000000       0.016
   0.50000000  0.00000000  0.20000000       0.008
   0.10000000  0.10000000  0.20000000       0.016
   0.20000000  0.10000000  0.20000000       0.032
   0.30000000  0.10000000  0.20000000       0.032
   0.40000000  0.10000000  0.20000000       0.032
   0.50000000  0.10000000  0.20000000       0.016
   0.20000000  0.20000000  0.20000000       0.016
   0.30000000  0.20000000  0.20000000       0.032
   0.40000000  0.20000000  0.20000000       0.032
   0.50000000  0.20000000  0.20000000       0.016
   0.30000000  0.30000000  0.20000000       0.016
   0.40000000  0.30000000  0.20000000       0.032
   0.50000000  0.30000000  0.20000000       0.016
   0.40000000  0.40000000  0.20000000       0.016
   0.50000000  0.40000000  0.20000000       0.016
   0.50000000  0.50000000  0.20000000       0.004
   0.00000000  0.00000000  0.40000000       0.004
   0.10000000  0.00000000  0.40000000       0.016
   0.20000000  0.00000000  0.40000000       0.016
   0.30000000  0.00000000  0.40000000       0.016
   0.40000000  0.00000000  0.40000000       0.016
   0.50000000  0.00000000  0.40000000       0.008
   0.10000000  0.10000000  0.40000000       0.016
   0.20000000  0.10000000  0.40000000       0.032
   0.30000000  0.10000000  0.40000000       0.032
   0.40000000  0.10000000  0.40000000       0.032
   0.50000000  0.10000000  0.40000000       0.016
   0.20000000  0.20000000  0.40000000       0.016
   0.30000000  0.20000000  0.40000000       0.032
   0.40000000  0.20000000  0.40000000       0.032
   0.50000000  0.20000000  0.40000000       0.016
   0.30000000  0.30000000  0.40000000       0.016
   0.40000000  0.30000000  0.40000000       0.032
   0.50000000  0.30000000  0.40000000       0.016
   0.40000000  0.40000000  0.40000000       0.016
   0.50000000  0.40000000  0.40000000       0.016
   0.50000000  0.50000000  0.40000000       0.004
 
 position of ions in fractional coordinates (direct lattice) 
   0.00000000  0.50000000  0.25000000
   0.00000000  0.00000000  0.00000000
   0.50000000  0.00000000  0.75000000
   0.50000000  0.50000000  0.50000000
   0.00000000  0.50000000  0.75000000
   0.00000000  0.00000000  0.50000000
   0.50000000  0.00000000  0.25000000
   0.50000000  0.50000000  0.00000000
   0.75000000  0.26500000  0.37500000
   0.25000000  0.76500000  0.87500000
   0.25000000  0.73500000  0.37500000
   0.75000000  0.23500000  0.87500000
   0.23500000  0.25000000  0.12500000
   0.76500000  0.75000000  0.12500000
   0.73500000  0.75000000  0.62500000
   0.26500000  0.25000000  0.62500000
 
 position of ions in cartesian coordinates  (Angst):
   0.00000000  2.89120000  2.90480000
   0.00000000  0.00000000  0.00000000
   2.89120000  0.00000000  8.71440000
   2.89120000  2.89120000  5.80960000
   0.00000000  2.89120000  8.71440000
   0.00000000  0.00000000  5.80960000
   2.89120000  0.00000000  2.90480000
   2.89120000  2.89120000  0.00000000
   4.33680000  1.53233600  4.35720000
   1.44560000  4.42353600 10.16680000
   1.44560000  4.25006400  4.35720000
   4.33680000  1.35886400 10.16680000
   1.35886400  1.44560000  1.45240000
   4.42353600  4.33680000  1.45240000
   4.25006400  4.33680000  7.26200000
   1.53233600  1.44560000  7.26200000
 


--------------------------------------------------------------------------------------------------------


 k-point  1 :   0.0000 0.0000 0.0000  plane waves:    4581
 k-point  2 :   0.1000 0.0000 0.0000  plane waves:    4599
 k-point  3 :   0.2000 0.0000 0.0000  plane waves:    4576
 k-point  4 :   0.3000 0.0000 0.0000  plane waves:    4594
 k-point  5 :   0.4000 0.0000 0.0000  plane waves:    4578
 k-point  6 :   0.5000 0.0000 0.0000  plane waves:    4576
 k-point  7 :   0.1000 0.1000 0.0000  plane waves:    4589
 k-point  8 :   0.2000 0.1000 0.0000  plane waves:    4571
 k-point  9 :   0.3000 0.1000 0.0000  plane waves:    4581
 k-point 10 :   0.4000 0.1000 0.0000  plane waves:    4589
 k-point 11 :   0.5000 0.1000 0.0000  plane waves:    4594
 k-point 12 :   0.2000 0.2000 0.0000  plane waves:    4593
 k-point 13 :   0.3000 0.2000 0.0000  plane waves:    4584
 k-point 14 :   0.4000 0.2000 0.0000  plane waves:    4585
 k-point 15 :   0.5000 0.2000 0.0000  plane waves:    4594
 k-point 16 :   0.3000 0.3000 0.0000  plane waves:    4578
 k-point 17 :   0.4000 0.3000 0.0000  plane waves:    4599
 k-point 18 :   0.5000 0.3000 0.0000  plane waves:    4594
 k-point 19 :   0.4000 0.4000 0.0000  plane waves:    4584
 k-point 20 :   0.5000 0.4000 0.0000  plane waves:    4584
 k-point 21 :   0.5000 0.5000 0.0000  plane waves:    4608
 k-point 22 :   0.0000 0.0000 0.2000  plane waves:    4589
 k-point 23 :   0.1000 0.0000 0.2000  plane waves:    4587
 k-point 24 :   0.2000 0.0000 0.2000  plane waves:    4588
 k-point 25 :   0.3000 0.0000 0.2000  plane waves:    4589
 k-point 26 :   0.4000 0.0000 0.2000  plane waves:    4578
 k-point 27 :   0.5000 0.0000 0.2000  plane waves:    4580
 k-point 28 :   0.1000 0.1000 0.2000  plane waves:    4573
 k-point 29 :   0.2000 0.1000 0.2000  plane waves:    4583
 k-point 30 :   0.3000 0.1000 0.2000  plane waves:    4587
 k-point 31 :   0.4000 0.1000 0.2000  plane waves:    4575
 k-point 32 :   0.5000 0.1000 0.2000  plane waves:    4582
 k-point 33 :   0.2000 0.2000 0.2000  plane waves:    4589
 k-point 34 :   0.3000 0.2000 0.2000  plane waves:    4580
 k-point 35 :   0.4000 0.2000 0.2000  plane waves:    4579
 k-point 36 :   0.5000 0.2000 0.2000  plane waves:    4582
 k-point 37 :   0.3000 0.3000 0.2000  plane waves:    4587
 k-point 38 :   0.4000 0.3000 0.2000  plane waves:    4597
 k-point 39 :   0.5000 0.3000 0.2000  plane waves:    4598
 k-point 40 :   0.4000 0.4000 0.2000  plane waves:    4598
 k-point 41 :   0.5000 0.4000 0.2000  plane waves:    4604
 k-point 42 :   0.5000 0.5000 0.2000  plane waves:    4580
 k-point 43 :   0.0000 0.0000 0.4000  plane waves:    4589
 k-point 44 :   0.1000 0.0000 0.4000  plane waves:    4576
 k-point 45 :   0.2000 0.0000 0.4000  plane waves:    4588
 k-point 46 :   0.3000 0.0000 0.4000  plane waves:    4573
 k-point 47 :   0.4000 0.0000 0.4000  plane waves:    4576
[...]
    433      53.9256      0.00000
    434      53.9256      0.00000
    435      53.9256      0.00000
    436      53.9256      0.00000
    437      54.3439      0.00000
    438      54.3439      0.00000
    439      54.3439      0.00000
    440      54.3439      0.00000
    441      54.6369      0.00000
    442      54.6369      0.00000
    443      54.6369      0.00000
    444      54.6369      0.00000
    445      54.8188      0.00000
    446      54.8188      0.00000
    447      54.8188      0.00000
    448      54.8188      0.00000
    449      55.2511      0.00000
    450      55.2511      0.00000
    451      55.2511      0.00000
    452      55.2511      0.00000
    453      55.4516      0.00000
    454      55.4516      0.00000
    455      55.4516      0.00000
    456      55.4516      0.00000
    457      56.0769      0.00000
    458      56.0769      0.00000
    459      56.0769      0.00000
    460      56.0769      0.00000
    461      56.5992      0.00000
    462      56.5992      0.00000
    463      56.5992      0.00000
    464      56.5992      0.00000
    465      57.0485      0.00000
    466      57.0485      0.00000
    467      57.0485      0.00000
    468      57.0485      0.00000
    469      57.1662      0.00000
    470      57.1662      0.00000
    471      57.1662      0.00000
    472      57.1662      0.00000
    473      57.4687      0.00000
    474      57.4687      0.00000
    475      57.4687      0.00000
    476      57.4687      0.00000
    477      57.9475      0.00000
    478      57.9475      0.00000
    479      57.9475      0.00000
    480      57.9475      0.00000
    481      58.1950      0.00000
    482      58.1950      0.00000
    483      58.1950      0.00000
    484      58.1950      0.00000
    485      58.7125      0.00000
    486      58.7125      0.00000
    487      58.7126      0.00000
    488      58.7126      0.00000
    489      59.0020      0.00000
    490      59.0020      0.00000
    491      59.0020      0.00000
    492      59.0020      0.00000
    493      59.3266      0.00000
    494      59.3266      0.00000
    495      59.3266      0.00000
    496      59.3266      0.00000
    497      59.6939      0.00000
    498      59.6939      0.00000
    499      59.6939      0.00000
    500      59.6939      0.00000
    501      60.0326      0.00000
    502      60.0326      0.00000
    503      60.0326      0.00000
    504      60.0326      0.00000
    505      60.3812      0.00000
    506      60.3812      0.00000
    507      60.3812      0.00000
    508      60.3812      0.00000
    509      60.6344      0.00000
    510      60.6344      0.00000
    511      60.6344      0.00000
    512      60.6344      0.00000
    513      60.9865      0.00000
    514      60.9865      0.00000
    515      60.9865      0.00000
    516      60.9865      0.00000
    517      61.3142      0.00000
    518      61.3142      0.00000
    519      61.3142      0.00000
    520      61.3142      0.00000
    521      61.7773      0.00000
    522      61.7773      0.00000
    523      61.7773      0.00000
    524      61.7773      0.00000
    525      62.1338      0.00000
    526      62.1338      0.00000
    527      62.1338      0.00000
    528      62.1338      0.00000
    529      62.6018      0.00000
    530      62.6018      0.00000
    531      62.6018      0.00000
    532      62.6018      0.00000
    533      62.7809      0.00000
    534      62.7809      0.00000
    535      62.7809      0.00000
    536      62.7809      0.00000
    537      63.0392      0.00000
    538      63.0392      0.00000
    539      63.0392      0.00000
    540      63.0392      0.00000
    541      63.2453      0.00000
    542      63.2453      0.00000
    543      63.2453      0.00000
    544      63.2453      0.00000
    545      63.6459      0.00000
    546      63.6459      0.00000
    547      63.6459      0.00000
    548      63.6459      0.00000
    549      64.0033      0.00000
    550      64.0033      0.00000
    551      64.0033      0.00000
    552      64.0033      0.00000
    553      64.1076      0.00000
    554      64.1076      0.00000
    555      64.1076      0.00000
    556      64.1076      0.00000
    557      64.4054      0.00000
    558      64.4054      0.00000
    559      64.4055      0.00000
    560      64.4055      0.00000
    561      64.9732      0.00000
    562      64.9732      0.00000
    563      64.9732      0.00000
    564      64.9732      0.00000
    565      65.2682      0.00000
    566      65.2682      0.00000
    567      65.2682      0.00000
    568      65.2682      0.00000
    569      65.4346      0.00000
    570      65.4346      0.00000
    571      65.4346      0.00000
    572      65.4346      0.00000
    573      66.1153      0.00000
    574      66.1153      0.00000
    575      66.1153      0.00000
    576      66.1153      0.00000
    577      66.2678      0.00000
    578      66.2678      0.00000
    579      66.2678      0.00000
    580      66.2678      0.00000
    581      66.5292      0.00000
    582      66.5292      0.00000
    583      66.5292      0.00000
    584      66.5292      0.00000
    585      66.8598      0.00000
    586      66.8598      0.00000
    587      66.8598      0.00000
    588      66.8598      0.00000
    589      67.3427      0.00000
    590      67.3427      0.00000
    591      67.3427      0.00000
    592      67.3427      0.00000
    593      67.6270      0.00000
    594      67.6270      0.00000
    595      67.6270      0.00000
    596      67.6270      0.00000
    597      68.0295      0.00000
    598      68.0295      0.00000
    599      68.0295      0.00000
    600      68.0295      0.00000
    601      68.6154      0.00000
    602      68.6154      0.00000
    603      68.6154      0.00000
    604      68.6154      0.00000
    605      68.7988      0.00000
    606      68.7988      0.00000
    607      68.7988      0.00000
    608      68.7988      0.00000
    609      69.0877      0.00000
    610      69.0877      0.00000
    611      69.0877      0.00000
    612      69.0877      0.00000
    613      69.3994      0.00000
    614      69.3994      0.00000
    615      69.3994      0.00000
    616      69.3994      0.00000
    617      69.7083      0.00000
    618      69.7083      0.00000
    619      69.7083      0.00000
    620      69.7083      0.00000
    621      69.8708      0.00000
    622      69.8708      0.00000
    623      69.8708      0.00000
    624      69.8708      0.00000
    625      70.2289      0.00000
    626      70.2289      0.00000
    627      70.2290      0.00000
    628      70.2290      0.00000
    629      70.8249      0.00000
    630      70.8249      0.00000
    631      70.8249      0.00000
    632      70.8249      0.00000
    633      71.2377      0.00000
    634      71.2377      0.00000
    635      71.2378      0.00000
    636      71.2381      0.00000
    637      71.4752      0.00000
    638      71.4753      0.00000
    639      71.4755      0.00000
    640      71.4757      0.00000
    641      71.9407      0.00000
    642      71.9498      0.00000


--------------------------------------------------------------------------------------------------------


 soft charge-density along one line, spin component           1
         0         1         2         3         4         5         6         7         8         9
 total charge-density along one line
 
 pseudopotential strength for first ion, spin component:           1
 -2.095  -0.000  -0.000  -0.000  -0.002  -2.318   0.000   0.000
 -0.000  -2.104   0.000   0.000   0.000   0.000  -2.314  -0.000
 -0.000   0.000  -2.105   0.000  -0.000   0.000  -0.000  -2.314
 -0.000   0.000   0.000  -2.104  -0.000   0.000  -0.000  -0.000
 -0.002   0.000  -0.000  -0.000  -2.092   0.001  -0.000   0.000
 -2.318   0.000   0.000   0.000   0.001   2.657  -0.000  -0.000
  0.000  -2.314  -0.000  -0.000  -0.000  -0.000   2.655   0.000
  0.000  -0.000  -2.314  -0.000   0.000  -0.000   0.000   2.655
  0.000  -0.000  -0.000  -2.314   0.000  -0.000   0.000   0.000
  0.001  -0.000   0.000   0.000  -2.319  -0.000   0.000  -0.000
 -0.000   0.000   0.001   0.000   0.000   0.000   0.000  -0.000
  0.000  -0.000  -0.000  -0.000   0.000  -0.000   0.000   0.000
 -0.000   0.000   0.000   0.006   0.000   0.000  -0.000  -0.000
  0.006  -0.000   0.000  -0.000  -0.000  -0.001   0.000  -0.000
 -0.000   0.006   0.000  -0.000  -0.000   0.000  -0.001  -0.000
  0.000   0.000  -0.000   0.000  -0.000  -0.000  -0.000   0.000
  0.000   0.000  -0.000   0.000  -0.000  -0.000  -0.000   0.000
  0.000   0.000  -0.000  -0.000   0.000  -0.000  -0.000   0.000
 total augmentation occupancy for first ion, spin component:           1
  1.959   0.000   0.000   0.000  -0.002  -0.019   0.000   0.000   0.000   0.007  -0.000  -0.000   0.000  -0.037  -0.000   0.000
  0.000   1.959   0.000  -0.000  -0.000   0.000  -0.017   0.000  -0.000  -0.000   0.000   0.000  -0.004  -0.000  -0.035   0.000
  0.000   0.000   1.958   0.000  -0.000   0.000   0.000  -0.025   0.000  -0.000   0.002  -0.002  -0.000  -0.000  -0.000   0.000
  0.000  -0.000   0.000   1.959   0.000  -0.000   0.000   0.000  -0.017  -0.000  -0.000  -0.000  -0.035   0.000   0.004  -0.009
 -0.002  -0.000  -0.000   0.000   1.960   0.007  -0.000  -0.000   0.000  -0.031   0.000   0.000   0.000   0.001   0.000   0.000
 -0.019   0.000   0.000  -0.000   0.007   0.100  -0.000  -0.000   0.000   0.000   0.000   0.000   0.000   0.100  -0.000   0.000
  0.000  -0.017   0.000   0.000  -0.000  -0.000   0.105  -0.000  -0.000  -0.000  -0.000  -0.000  -0.001   0.000   0.099   0.000
  0.000   0.000  -0.025   0.000  -0.000  -0.000  -0.000   0.023   0.000   0.000   0.005  -0.005  -0.000  -0.000  -0.000   0.000
  0.000  -0.000   0.000  -0.017   0.000   0.000  -0.000   0.000   0.105   0.000   0.000  -0.000   0.099  -0.000   0.001  -0.012
  0.007  -0.000  -0.000  -0.000  -0.031   0.000  -0.000   0.000   0.000   0.025   0.000  -0.000   0.000   0.002   0.000  -0.000
 -0.000   0.000   0.002  -0.000   0.000   0.000  -0.000   0.005   0.000   0.000   0.779  -0.477  -0.000   0.000  -0.000   0.000
 -0.000   0.000  -0.002  -0.000   0.000   0.000  -0.000  -0.005  -0.000  -0.000  -0.477   0.334  -0.000   0.000  -0.000   0.000
  0.000  -0.004  -0.000  -0.035   0.000   0.000  -0.001  -0.000   0.099   0.000  -0.000  -0.000   0.141   0.000   0.000  -0.017
 -0.037  -0.000  -0.000   0.000   0.001   0.100   0.000  -0.000  -0.000   0.002   0.000   0.000   0.000   0.144  -0.000   0.000
 -0.000  -0.035  -0.000   0.004   0.000  -0.000   0.099  -0.000   0.001   0.000  -0.000  -0.000   0.000  -0.000   0.141   0.000
  0.000   0.000   0.000  -0.009   0.000   0.000   0.000   0.000  -0.012  -0.000   0.000   0.000  -0.017   0.000   0.000   0.003
 -0.009   0.000   0.000   0.000  -0.000  -0.012  -0.000   0.000  -0.000  -0.001   0.000  -0.000  -0.000  -0.018   0.000  -0.000
 -0.000  -0.009  -0.000  -0.000   0.000  -0.000  -0.012   0.000  -0.000  -0.000  -0.000   0.000  -0.000  -0.000  -0.017   0.000


------------------------ aborting loop because EDIFF is reached ----------------------------------------


 


 total charge     
 
# of ion       s       p       d       tot
------------------------------------------
    1        0.318   0.298   9.381   9.997
    2        0.318   0.298   9.381   9.997
    3        0.318   0.298   9.381   9.997
    4        0.318   0.298   9.381   9.997
    5        0.814   0.725   9.931  11.470
    6        0.814   0.725   9.931  11.470
    7        0.814   0.725   9.931  11.470
    8        0.814   0.725   9.931  11.470
    9        1.446   2.432   0.039   3.916
   10        1.446   2.432   0.039   3.916
   11        1.446   2.432   0.039   3.916
   12        1.446   2.432   0.039   3.916
   13        1.446   2.432   0.039   3.916
   14        1.446   2.432   0.039   3.916
   15        1.446   2.432   0.039   3.916
   16        1.446   2.432   0.039   3.916
--------------------------------------------------
tot         16.092  23.546  77.556 117.194
 
    CHARGE:  cpu time    2.2056: real time    2.2189
    FORLOC:  cpu time    0.0075: real time    0.0075
    FORHF :  cpu time 1527.4178: real time 1530.1889
    FORNL :  cpu time    9.5651: real time    9.6346
    FORCOR:  cpu time    0.3060: real time    0.3068
    FORHAR:  cpu time    0.0166: real time    0.0167
    MIXING:  cpu time    0.0007: real time    0.0007
    OFIELD:  cpu time    0.0000: real time    0.0000

 VOLUME and BASIS-vectors are now :
 -----------------------------------------------------------------------------
  energy-cutoff  :      300.00
  volume of cell :      388.50
      direct lattice vectors                 reciprocal lattice vectors
     5.782400000  0.000000000  0.000000000     0.172938572  0.000000000  0.000000000
     0.000000000  5.782400000  0.000000000     0.000000000  0.172938572  0.000000000
     0.000000000  0.000000000 11.619200000     0.000000000  0.000000000  0.086064445

  length of vectors
     5.782400000  5.782400000 11.619200000     0.172938572  0.172938572  0.086064445


 FORCES acting on ions
    electron-ion (+dipol)            ewald-force                    non-local-force                 convergence-correction
 -----------------------------------------------------------------------------------------------
   -.209E-08 -.249E-07 -.940E-05   -.289E-13 -.147E-13 -.142E-13   0.155E-19 0.205E-19 -.189E-17   -.781E-06 0.318E-06 0.684E-05
   0.142E-06 -.122E-06 0.991E-05   -.426E-13 0.444E-15 -.711E-14   -.918E-20 0.117E-19 -.173E-17   -.122E-06 0.218E-06 -.325E-05
   -.311E-07 0.322E-07 0.179E-05   -.284E-13 -.142E-13 0.426E-13   0.267E-19 -.101E-18 0.933E-18   -.442E-06 -.527E-06 -.669E-05
   -.142E-06 0.191E-06 0.296E-05   -.426E-13 0.000E+00 0.000E+00   -.139E-19 -.992E-19 -.195E-17   0.111E-07 0.342E-06 0.351E-05
   -.298E-07 -.915E-07 0.682E-05   0.568E-13 -.284E-13 0.711E-13   0.351E-18 0.253E-18 -.266E-17   0.396E-07 0.836E-07 -.982E-05
   -.213E-07 -.810E-07 -.410E-05   0.284E-13 0.142E-13 0.568E-13   0.239E-18 -.588E-18 0.189E-17   0.225E-06 -.417E-07 0.796E-05
   -.596E-07 -.774E-07 -.839E-05   0.715E-13 -.302E-13 -.284E-13   -.116E-17 -.655E-18 0.241E-18   0.622E-06 -.250E-06 0.963E-05
   0.725E-08 0.104E-07 0.655E-05   0.426E-13 0.151E-13 -.711E-14   -.425E-18 0.350E-18 0.270E-17   -.178E-06 -.120E-06 -.824E-05
   -.341E-04 -.737E+01 -.704E-04   -.275E-13 0.950E+01 -.284E-13   -.151E-17 -.139E+01 0.356E-17   0.106E-05 0.272E-02 -.845E-07
   -.328E-04 -.737E+01 -.643E-04   -.288E-13 0.950E+01 -.142E-13   -.188E-17 -.139E+01 0.178E-17   -.303E-06 0.272E-02 -.633E-05
   0.340E-04 0.737E+01 -.705E-04   -.150E-13 -.950E+01 -.142E-13   0.725E-18 0.139E+01 -.493E-17   -.109E-05 -.272E-02 -.545E-07
   0.326E-04 0.737E+01 -.645E-04   -.139E-13 -.950E+01 0.284E-13   -.449E-18 0.139E+01 -.183E-17   0.306E-06 -.272E-02 -.624E-05
   0.737E+01 -.333E-04 0.665E-04   -.950E+01 -.133E-13 -.172E-13   0.139E+01 0.977E-18 -.576E-17   -.272E-02 0.336E-06 0.423E-05
   -.737E+01 0.331E-04 0.666E-04   0.950E+01 -.145E-14 -.169E-13   -.139E+01 -.285E-17 0.474E-18   0.272E-02 -.276E-06 0.431E-05
   0.737E+01 -.336E-04 0.682E-04   -.950E+01 -.131E-13 0.296E-13   0.139E+01 -.432E-17 0.281E-18   -.272E-02 0.426E-06 0.203E-05
   -.737E+01 0.335E-04 0.683E-04   0.950E+01 -.803E-15 0.976E-14   -.139E+01 -.339E-17 -.961E-19   0.272E-02 -.443E-06 0.207E-05
 -----------------------------------------------------------------------------------------------
   -.684E-06 -.739E-06 0.614E-05   0.000E+00 0.157E-13 0.905E-13   0.444E-15 -.454E-15 -.900E-17   -.715E-06 0.108E-06 -.119E-06
 
 
 POSITION                                       TOTAL-FORCE (eV/Angst)
 -----------------------------------------------------------------------------------
      0.00000      2.89120      2.90480        -0.000000     -0.000000      0.000000
      0.00000      0.00000      0.00000         0.000000      0.000000      0.000000
      2.89120      0.00000      8.71440         0.000000      0.000000      0.000000
      2.89120      2.89120      5.80960        -0.000000      0.000000      0.000000
      0.00000      2.89120      8.71440         0.000000     -0.000000      0.000000
      0.00000      0.00000      5.80960         0.000000      0.000000      0.000000
      2.89120      0.00000      2.90480         0.000000      0.000000      0.000000
      2.89120      2.89120      0.00000         0.000000      0.000000      0.000000
      4.33680      1.53234      4.35720        -0.000000      0.521646     -0.000000
      1.44560      4.42354     10.16680         0.000000      0.521646     -0.000000
      1.44560      4.25006      4.35720         0.000000     -0.521646      0.000000
      4.33680      1.35886     10.16680        -0.000000     -0.521646      0.000000
      1.35886      1.44560      1.45240        -0.521646      0.000000     -0.000000
      4.42354      4.33680      1.45240         0.521646      0.000000      0.000000
      4.25006      4.33680      7.26200        -0.521646      0.000000     -0.000000
      1.53234      1.44560      7.26200         0.521646     -0.000000     -0.000000
 -----------------------------------------------------------------------------------
    total drift:                               -0.000001     -0.000001      0.000006


--------------------------------------------------------------------------------------------------------



  FREE ENERGIE OF THE ION-ELECTRON SYSTEM (eV)
  ---------------------------------------------------
  free  energy   TOTEN  =       -83.29325813 eV

  energy  without entropy=      -83.29325813  energy(sigma->0) =      -83.29325813
 


--------------------------------------------------------------------------------------------------------


    POTLOK:  cpu time    0.3134: real time    0.3148


--------------------------------------------------------------------------------------------------------


 writing wavefunctions
     LOOP+:  cpu time10118.6447: real time10493.3409
    4ORBIT:  cpu time    0.0000: real time    0.0000
 


 total charge     
 
# of ion       s       p       d       tot
------------------------------------------
    1        0.318   0.298   9.381   9.997
    2        0.318   0.298   9.381   9.997
    3        0.318   0.298   9.381   9.997
    4        0.318   0.298   9.381   9.997
    5        0.814   0.725   9.931  11.470
    6        0.814   0.725   9.931  11.470
    7        0.814   0.725   9.931  11.470
    8        0.814   0.725   9.931  11.470
    9        1.446   2.432   0.039   3.916
   10        1.446   2.432   0.039   3.916
   11        1.446   2.432   0.039   3.916
   12        1.446   2.432   0.039   3.916
   13        1.446   2.432   0.039   3.916
   14        1.446   2.432   0.039   3.916
   15        1.446   2.432   0.039   3.916
   16        1.446   2.432   0.039   3.916
--------------------------------------------------
tot         16.092  23.546  77.556 117.194
 

 total amount of memory used by VASP MPI-rank0   597850. kBytes
=======================================================================

   base      :      30000. kBytes
   nonlr-proj:      12997. kBytes
   fftplans  :      18111. kBytes
   grid      :      11473. kBytes
   one-center:        248. kBytes
   HF        :        194. kBytes
   wavefun   :     524827. kBytes
 
  
  
 General timing and accounting informations for this job:
 ========================================================
  
                  Total CPU time used (sec):    10160.037
                            User time (sec):     7393.279
                          System time (sec):     2766.758
                         Elapsed time (sec):    10537.774
  
                   Maximum memory used (kb):     2068796.
                   Average memory used (kb):           0.
  
                          Minor page faults:       179131
                          Major page faults:            2
                 Voluntary context switches:      3959002
