 vasp.6.1.2 22Jul20 (build Oct 22 2020 13:15:48) complex                        
  
 executed on                Eagle date 2020.11.04  00:12:11
 running on    4 total cores
 distrk:  each k-point on    1 cores,    4 groups
 distr:  one band on NCORE=   1 cores,    1 groups


--------------------------------------------------------------------------------------------------------


 INCAR:
 POTCAR:   PAW_PBE Cu 05Jan2001                   
 POTCAR:   PAW_PBE In_d 06Sep2000                 
 POTCAR:   PAW_PBE Se 06Sep2000                   
 POTCAR:   PAW_PBE Cu 05Jan2001                   
   VRHFIN =Cu: d10 p1                                                                               
   LEXCH  = PE                                                                                      
   EATOM  =  1390.9800 eV,  102.2341 Ry                                                             
                                                                                                    
   TITEL  = PAW_PBE Cu 05Jan2001                                                                    
   LULTRA =        F    use ultrasoft PP ?                                                          
   IUNSCR =        1    unscreen: 0-lin 1-nonlin 2-no                                               
   RPACOR =    2.000    partial core radius                                                         
   POMASS =   63.546; ZVAL   =   11.000    mass and valenz                                          
   RCORE  =    2.300    outmost cutoff radius                                                       
   RWIGS  =    2.480; RWIGS  =    1.312    wigner-seitz radius (au A)                               
   ENMAX  =  273.214; ENMIN  =  204.910 eV                                                          
   RCLOC  =    1.712    cutoff for local pot                                                        
   LCOR   =        T    correct aug charges                                                         
   LPAW   =        T    paw PP                                                                      
   EAUG   =  516.456                                                                                
   DEXC   =    -.008                                                                                
   RMAX   =    2.789    core radius for proj-oper                                                   
   RAUG   =    1.300    factor for augmentation sphere                                              
   RDEP   =    2.302    radius for radial grids                                                     
   QCUT   =   -4.481; QGAM   =    8.962    optimization parameters                                  
                                                                                                    
   Description                                                                                      
     l     E      TYP  RCUT    TYP  RCUT                                                            
     2   .000     23  2.300                                                                         
     2   .000     23  2.300                                                                         
     0   .000     23  2.300                                                                         
     0   .000     23  2.300                                                                         
     1  -.200     23  2.300                                                                         
     1   .000     23  2.300                                                                         
     3   .000      7   .000                                                                         
  local pseudopotential read in
  partial core-charges read in
  atomic valenz-charges read in
  non local Contribution for L=           2  read in
    real space projection operators read in
  non local Contribution for L=           2  read in
    real space projection operators read in
  non local Contribution for L=           0  read in
    real space projection operators read in
  non local Contribution for L=           0  read in
    real space projection operators read in
  non local Contribution for L=           1  read in
    real space projection operators read in
  non local Contribution for L=           1  read in
    real space projection operators read in
    PAW grid and wavefunctions read in
 
   number of l-projection  operators is LMAX  =           6
   number of lm-projection operators is LMMAX =          18
 
 POTCAR:   PAW_PBE In_d 06Sep2000                 
   VRHFIN =In: s2p1                                                                                 
   LEXCH  = PE                                                                                      
   EATOM  =  1576.8738 eV,  115.8970 Ry                                                             
                                                                                                    
   TITEL  = PAW_PBE In_d 06Sep2000                                                                  
   LULTRA =        F    use ultrasoft PP ?                                                          
   IUNSCR =        1    unscreen: 0-lin 1-nonlin 2-no                                               
   RPACOR =    2.200    partial core radius                                                         
   POMASS =  114.820; ZVAL   =   13.000    mass and valenz                                          
   RCORE  =    2.500    outmost cutoff radius                                                       
   RWIGS  =    3.170; RWIGS  =    1.677    wigner-seitz radius (au A)                               
   ENMAX  =  239.218; ENMIN  =  179.413 eV                                                          
   ICORE  =        3    local potential                                                             
   LCOR   =        T    correct aug charges                                                         
   LPAW   =        T    paw PP                                                                      
   EAUG   =  449.704                                                                                
   DEXC   =    -.003                                                                                
   RMAX   =    2.981    core radius for proj-oper                                                   
   RAUG   =    1.300    factor for augmentation sphere                                              
   RDEP   =    2.630    radius for radial grids                                                     
   QCUT   =   -4.193; QGAM   =    8.386    optimization parameters                                  
                                                                                                    
   Description                                                                                      
     l     E      TYP  RCUT    TYP  RCUT                                                            
     2   .000     23  2.500                                                                         
     2  -.100     23  2.500                                                                         
     0   .000     23  2.500                                                                         
     0   .000     23  2.500                                                                         
     1   .000     23  2.500                                                                         
     1   .000     23  2.500                                                                         
     3  -.100      7  2.500                                                                         
  local pseudopotential read in
  partial core-charges read in
  atomic valenz-charges read in
  non local Contribution for L=           2  read in
    real space projection operators read in
  non local Contribution for L=           2  read in
    real space projection operators read in
  non local Contribution for L=           0  read in
    real space projection operators read in
  non local Contribution for L=           0  read in
    real space projection operators read in
  non local Contribution for L=           1  read in
    real space projection operators read in
  non local Contribution for L=           1  read in
    real space projection operators read in
    PAW grid and wavefunctions read in
 
   number of l-projection  operators is LMAX  =           6
   number of lm-projection operators is LMMAX =          18
 
 POTCAR:   PAW_PBE Se 06Sep2000                   
   VRHFIN =Se: s2p4                                                                                 
   LEXCH  = PE                                                                                      
   EATOM  =   256.9644 eV,   18.8864 Ry                                                             
                                                                                                    
   TITEL  = PAW_PBE Se 06Sep2000                                                                    
   LULTRA =        F    use ultrasoft PP ?                                                          
   IUNSCR =        1    unscreen: 0-lin 1-nonlin 2-no                                               
   RPACOR =    1.900    partial core radius                                                         
   POMASS =   78.960; ZVAL   =    6.000    mass and valenz                                          
   RCORE  =    2.100    outmost cutoff radius                                                       
   RWIGS  =    2.200; RWIGS  =    1.164    wigner-seitz radius (au A)                               
   ENMAX  =  211.534; ENMIN  =  158.651 eV                                                          
   ICORE  =        3    local potential                                                             
   LCOR   =        T    correct aug charges                                                         
   LPAW   =        T    paw PP                                                                      
   EAUG   =  446.842                                                                                
   DEXC   =    -.031                                                                                
   RMAX   =    3.170    core radius for proj-oper                                                   
   RAUG   =    1.300    factor for augmentation sphere                                              
   RDEP   =    2.177    radius for radial grids                                                     
   QCUT   =   -3.943; QGAM   =    7.886    optimization parameters                                  
                                                                                                    
   Description                                                                                      
     l     E      TYP  RCUT    TYP  RCUT                                                            
     0   .000     23  2.100                                                                         
     0   .000     23  2.100                                                                         
     1   .000     23  2.100                                                                         
     1   .000     23  2.100                                                                         
     2   .000     23  2.100                                                                         
     3  -.100      7  2.100                                                                         
  local pseudopotential read in
  partial core-charges read in
  atomic valenz-charges read in
  non local Contribution for L=           0  read in
    real space projection operators read in
  non local Contribution for L=           0  read in
    real space projection operators read in
  non local Contribution for L=           1  read in
    real space projection operators read in
  non local Contribution for L=           1  read in
    real space projection operators read in
  non local Contribution for L=           2  read in
    real space projection operators read in
    PAW grid and wavefunctions read in
 
   number of l-projection  operators is LMAX  =           5
   number of lm-projection operators is LMMAX =          13
 
 Optimization of the real space projectors (new method)

 maximal supplied QI-value         = 16.25
 optimisation between [QCUT,QGAM] = [  8.78, 17.71] = [ 21.57, 87.87] Ry 
 Optimized for a Real-space Cutoff    1.55 Angstroem

   l    n(q)    QCUT    max X(q) W(low)/X(q) W(high)/X(q)  e(spline) 
   2      7     8.776     4.977    0.28E-04    0.69E-04    0.37E-07
   2      7     8.776    13.467    0.23E-03    0.53E-03    0.29E-06
   0      8     8.776    13.303    0.20E-04    0.99E-06    0.49E-08
   0      8     8.776    44.613    0.14E-03    0.13E-03    0.52E-07
   1      8     8.776     5.276    0.26E-04    0.52E-04    0.24E-07
   1      8     8.776     7.322    0.72E-04    0.20E-03    0.79E-07
 Optimization of the real space projectors (new method)

 maximal supplied QI-value         = 15.12
 optimisation between [QCUT,QGAM] = [  8.77, 17.69] = [ 21.53, 87.61] Ry 
 Optimized for a Real-space Cutoff    1.55 Angstroem

   l    n(q)    QCUT    max X(q) W(low)/X(q) W(high)/X(q)  e(spline) 
   2      7     8.768     5.612    0.14E-03    0.19E-03    0.63E-07
   2      7     8.768    10.513    0.23E-03    0.21E-03    0.19E-06
   0      8     8.768    10.288    0.14E-04    0.27E-05    0.44E-08
   0      8     8.768   125.287    0.12E-03    0.17E-03    0.49E-07
   1      8     8.768     9.436    0.42E-05    0.24E-04    0.20E-07
   1      8     8.768   104.332    0.20E-03    0.10E-03    0.71E-07
 Optimization of the real space projectors (new method)

 maximal supplied QI-value         = 17.95
 optimisation between [QCUT,QGAM] = [  8.80, 17.59] = [ 21.67, 86.68] Ry 
 Optimized for a Real-space Cutoff    1.59 Angstroem

   l    n(q)    QCUT    max X(q) W(low)/X(q) W(high)/X(q)  e(spline) 
   0      8     8.797     6.499    0.18E-04    0.31E-05    0.21E-07
   0      8     8.797    52.623    0.85E-04    0.16E-03    0.90E-07
   1      8     8.797     4.229    0.27E-04    0.53E-04    0.61E-07
   1      8     8.797    29.991    0.18E-03    0.33E-04    0.29E-06
   2      7     8.797     3.719    0.85E-04    0.16E-03    0.78E-07
 PAW_PBE Cu 05Jan2001                   :
 energy of atom  1       EATOM=-1390.9800
 kinetic energy error for atom=    0.0323 (will be added to EATOM!!)
 PAW_PBE In_d 06Sep2000                 :
 energy of atom  2       EATOM=-1576.8738
 kinetic energy error for atom=    0.0380 (will be added to EATOM!!)
 PAW_PBE Se 06Sep2000                   :
 energy of atom  3       EATOM= -256.9644
 kinetic energy error for atom=    0.0040 (will be added to EATOM!!)
 
 
 POSCAR: Cu1-In1-Se2 'I -4 2 d'  #122
  positions in direct lattice
  No initial velocities read in
 exchange correlation table for  LEXCH =        8
   RHO(1)=    0.500       N(1)  =     2000
   RHO(2)=  100.500       N(2)  =     4000
 


--------------------------------------------------------------------------------------------------------


 ion  position               nearest neighbor table
   1  0.000  0.500  0.250-   9 2.46  11 2.46  13 2.46  14 2.46
   2  0.000  0.000  0.000-  10 2.46  12 2.46  13 2.46  14 2.46
   3  0.500  0.000  0.750-  10 2.46  12 2.46  15 2.46  16 2.46
   4  0.500  0.500  0.500-   9 2.46  11 2.46  15 2.46  16 2.46
   5  0.000  0.500  0.750-  15 2.56  16 2.56  10 2.56  12 2.56
   6  0.000  0.000  0.500-  15 2.56  16 2.56   9 2.56  11 2.56
   7  0.500  0.000  0.250-  13 2.56  14 2.56   9 2.56  11 2.56
   8  0.500  0.500  0.000-  13 2.56  14 2.56  10 2.56  12 2.56
   9  0.750  0.265  0.375-   1 2.46   4 2.46   6 2.56   7 2.56
  10  0.250  0.765  0.875-   2 2.46   3 2.46   5 2.56   8 2.56
  11  0.250  0.735  0.375-   1 2.46   4 2.46   6 2.56   7 2.56
  12  0.750  0.235  0.875-   2 2.46   3 2.46   5 2.56   8 2.56
  13  0.235  0.250  0.125-   1 2.46   2 2.46   7 2.56   8 2.56
  14  0.765  0.750  0.125-   1 2.46   2 2.46   7 2.56   8 2.56
  15  0.735  0.750  0.625-   3 2.46   4 2.46   5 2.56   6 2.56
  16  0.265  0.250  0.625-   3 2.46   4 2.46   5 2.56   6 2.56
 
  LATTYP: Found a simple tetragonal cell.
 ALAT       =     5.7824000000
 C/A-ratio  =     2.0094078583
  
  Lattice vectors:
  
 A1 = (   5.7824000000,   0.0000000000,   0.0000000000)
 A2 = (   0.0000000000,   5.7824000000,   0.0000000000)
 A3 = (   0.0000000000,   0.0000000000,  11.6192000000)


Analysis of symmetry for initial positions (statically):
=====================================================================
 Subroutine PRICEL returns following result:
 
  LATTYP: Found a body centered tetragonal cell.
 ALAT       =     5.7824000000
 C/A-ratio  =     2.0094078583
  
  Lattice vectors:
  
 A1 = (   2.8912000000,  -2.8912000000,   5.8096000000)
 A2 = (  -2.8912000000,   2.8912000000,   5.8096000000)
 A3 = (  -2.8912000000,  -2.8912000000,  -5.8096000000)
 
   2 primitive cells build up your supercell.
 

 Routine SETGRP: Setting up the symmetry group for a 
 simple tetragonal supercell.


 Subroutine GETGRP returns: Found  8 space group operations
 (whereof  4 operations were pure point group operations)
 out of a pool of 16 trial point group operations.


The static configuration has the point symmetry S_4 .
 The point group associated with its full space group is D_2d.


Analysis of symmetry for dynamics (positions and initial velocities):
=====================================================================
 Subroutine PRICEL returns following result:
 
  LATTYP: Found a body centered tetragonal cell.
 ALAT       =     5.7824000000
 C/A-ratio  =     2.0094078583
  
  Lattice vectors:
  
 A1 = (   2.8912000000,  -2.8912000000,   5.8096000000)
 A2 = (  -2.8912000000,   2.8912000000,   5.8096000000)
 A3 = (  -2.8912000000,  -2.8912000000,  -5.8096000000)
 
   2 primitive cells build up your supercell.
 

 Routine SETGRP: Setting up the symmetry group for a 
 simple tetragonal supercell.


 Subroutine GETGRP returns: Found  8 space group operations
 (whereof  4 operations were pure point group operations)
 out of a pool of 16 trial point group operations.


The dynamic configuration has the point symmetry S_4 .
 The point group associated with its full space group is D_2d.


 Subroutine INISYM returns: Found  8 space group operations
 (whereof  4 operations are pure point group operations),
 and found     2 'primitive' translations


----------------------------------------------------------------------------------------

                                     Primitive cell                                     

  volume of cell :     194.2507

  direct lattice vectors                    reciprocal lattice vectors
     2.891200000 -2.891200000  5.809600000     0.000000000 -0.172938572  0.086064445
    -2.891200000  2.891200000  5.809600000    -0.172938572 -0.000000000  0.086064445
    -2.891200000 -2.891200000 -5.809600000    -0.172938572 -0.172938572  0.000000000

  length of vectors
     7.104190808  7.104190808  7.104190808     0.193170491  0.193170491  0.244572074

  position of ions in fractional coordinates (direct lattice)
     0.750000000  0.250000000  0.500000000
     0.000000000  0.000000000  0.000000000
     0.500000000  0.500000000  0.000000000
     0.250000000  0.750000000  0.500000000
     0.110000000  0.625000000  0.985000000
     0.640000000  0.125000000  0.015000000
     0.875000000  0.890000000  0.515000000
     0.375000000  0.360000000  0.485000000

  ion indices of the primitive-cell ions
   primitive index   ion index
                 1           1
                 2           2
                 3           6
                 4           7
                 5           9
                 6          11
                 7          13
                 8          14

----------------------------------------------------------------------------------------

 
 
 KPOINTS: KPOINTS                                 

Automatic generation of k-mesh.
Space group operators:
 irot       det(A)        alpha          n_x          n_y          n_z        tau_x        tau_y        tau_z
    1     1.000000     0.000000     1.000000     0.000000     0.000000     0.000000     0.000000     0.000000
    2    -1.000000    90.000000     0.000000     0.000000    -1.000000     0.000000     0.000000     0.000000
    3     1.000000   180.000000     0.000000     0.000000     1.000000     0.000000     0.000000     0.000000
    4    -1.000000    90.000000     0.000000     0.000000     1.000000     0.000000     0.000000     0.000000
    5     1.000000   180.000000     0.000000     1.000000     0.000000     0.000000     0.500000     0.250000
    6    -1.000000   180.000000     0.707107     0.707107     0.000000     0.000000     0.500000     0.250000
    7     1.000000   180.000000     1.000000     0.000000     0.000000     0.000000     0.500000     0.250000
    8    -1.000000   180.000000     0.707107    -0.707107     0.000000     0.000000     0.500000     0.250000
 
 Subroutine IBZKPT returns following result:
 ===========================================
 
 Found     63 irreducible k-points:
 
 Following reciprocal coordinates:
            Coordinates               Weight
  0.000000  0.000000  0.000000      1.000000
  0.100000  0.000000  0.000000      4.000000
  0.200000  0.000000  0.000000      4.000000
  0.300000  0.000000  0.000000      4.000000
  0.400000  0.000000  0.000000      4.000000
  0.500000  0.000000  0.000000      2.000000
  0.100000  0.100000  0.000000      4.000000
  0.200000  0.100000  0.000000      8.000000
  0.300000  0.100000  0.000000      8.000000
  0.400000  0.100000  0.000000      8.000000
  0.500000  0.100000  0.000000      4.000000
  0.200000  0.200000  0.000000      4.000000
  0.300000  0.200000  0.000000      8.000000
  0.400000  0.200000  0.000000      8.000000
  0.500000  0.200000  0.000000      4.000000
  0.300000  0.300000  0.000000      4.000000
  0.400000  0.300000  0.000000      8.000000
  0.500000  0.300000  0.000000      4.000000
  0.400000  0.400000  0.000000      4.000000
  0.500000  0.400000  0.000000      4.000000
  0.500000  0.500000  0.000000      1.000000
  0.000000  0.000000  0.200000      2.000000
  0.100000  0.000000  0.200000      8.000000
  0.200000  0.000000  0.200000      8.000000
  0.300000  0.000000  0.200000      8.000000
  0.400000  0.000000  0.200000      8.000000
  0.500000  0.000000  0.200000      4.000000
  0.100000  0.100000  0.200000      8.000000
  0.200000  0.100000  0.200000     16.000000
  0.300000  0.100000  0.200000     16.000000
  0.400000  0.100000  0.200000     16.000000
  0.500000  0.100000  0.200000      8.000000
  0.200000  0.200000  0.200000      8.000000
  0.300000  0.200000  0.200000     16.000000
  0.400000  0.200000  0.200000     16.000000
  0.500000  0.200000  0.200000      8.000000
  0.300000  0.300000  0.200000      8.000000
  0.400000  0.300000  0.200000     16.000000
  0.500000  0.300000  0.200000      8.000000
  0.400000  0.400000  0.200000      8.000000
  0.500000  0.400000  0.200000      8.000000
  0.500000  0.500000  0.200000      2.000000
  0.000000  0.000000  0.400000      2.000000
  0.100000  0.000000  0.400000      8.000000
  0.200000  0.000000  0.400000      8.000000
  0.300000  0.000000  0.400000      8.000000
  0.400000  0.000000  0.400000      8.000000
  0.500000  0.000000  0.400000      4.000000
  0.100000  0.100000  0.400000      8.000000
  0.200000  0.100000  0.400000     16.000000
  0.300000  0.100000  0.400000     16.000000
  0.400000  0.100000  0.400000     16.000000
  0.500000  0.100000  0.400000      8.000000
  0.200000  0.200000  0.400000      8.000000
  0.300000  0.200000  0.400000     16.000000
  0.400000  0.200000  0.400000     16.000000
  0.500000  0.200000  0.400000      8.000000
  0.300000  0.300000  0.400000      8.000000
  0.400000  0.300000  0.400000     16.000000
  0.500000  0.300000  0.400000      8.000000
  0.400000  0.400000  0.400000      8.000000
  0.500000  0.400000  0.400000      8.000000
  0.500000  0.500000  0.400000      2.000000
 
 Following cartesian coordinates:
            Coordinates               Weight
  0.000000  0.000000  0.000000      1.000000
  0.017294  0.000000  0.000000      4.000000
  0.034588  0.000000  0.000000      4.000000
  0.051882  0.000000  0.000000      4.000000
  0.069175  0.000000  0.000000      4.000000
  0.086469  0.000000  0.000000      2.000000
  0.017294  0.017294  0.000000      4.000000
  0.034588  0.017294  0.000000      8.000000
  0.051882  0.017294  0.000000      8.000000
  0.069175  0.017294  0.000000      8.000000
  0.086469  0.017294  0.000000      4.000000
  0.034588  0.034588  0.000000      4.000000
  0.051882  0.034588  0.000000      8.000000
  0.069175  0.034588  0.000000      8.000000
  0.086469  0.034588  0.000000      4.000000
  0.051882  0.051882  0.000000      4.000000
  0.069175  0.051882  0.000000      8.000000
  0.086469  0.051882  0.000000      4.000000
  0.069175  0.069175  0.000000      4.000000
  0.086469  0.069175  0.000000      4.000000
  0.086469  0.086469  0.000000      1.000000
  0.000000  0.000000  0.017213      2.000000
  0.017294  0.000000  0.017213      8.000000
  0.034588  0.000000  0.017213      8.000000
  0.051882  0.000000  0.017213      8.000000
  0.069175  0.000000  0.017213      8.000000
  0.086469  0.000000  0.017213      4.000000
  0.017294  0.017294  0.017213      8.000000
  0.034588  0.017294  0.017213     16.000000
  0.051882  0.017294  0.017213     16.000000
  0.069175  0.017294  0.017213     16.000000
  0.086469  0.017294  0.017213      8.000000
  0.034588  0.034588  0.017213      8.000000
  0.051882  0.034588  0.017213     16.000000
  0.069175  0.034588  0.017213     16.000000
  0.086469  0.034588  0.017213      8.000000
  0.051882  0.051882  0.017213      8.000000
  0.069175  0.051882  0.017213     16.000000
  0.086469  0.051882  0.017213      8.000000
  0.069175  0.069175  0.017213      8.000000
  0.086469  0.069175  0.017213      8.000000
  0.086469  0.086469  0.017213      2.000000
  0.000000  0.000000  0.034426      2.000000
  0.017294  0.000000  0.034426      8.000000
  0.034588  0.000000  0.034426      8.000000
  0.051882  0.000000  0.034426      8.000000
  0.069175  0.000000  0.034426      8.000000
  0.086469  0.000000  0.034426      4.000000
  0.017294  0.017294  0.034426      8.000000
  0.034588  0.017294  0.034426     16.000000
  0.051882  0.017294  0.034426     16.000000
  0.069175  0.017294  0.034426     16.000000
  0.086469  0.017294  0.034426      8.000000
  0.034588  0.034588  0.034426      8.000000
  0.051882  0.034588  0.034426     16.000000
  0.069175  0.034588  0.034426     16.000000
  0.086469  0.034588  0.034426      8.000000
  0.051882  0.051882  0.034426      8.000000
  0.069175  0.051882  0.034426     16.000000
  0.086469  0.051882  0.034426      8.000000
  0.069175  0.069175  0.034426      8.000000
  0.086469  0.069175  0.034426      8.000000
  0.086469  0.086469  0.034426      2.000000
 


--------------------------------------------------------------------------------------------------------




 Dimension of arrays:
   k-points           NKPTS =     63   k-points in BZ     NKDIM =     63   number of bands    NBANDS=    640
   number of dos      NEDOS =    301   number of ions     NIONS =     16
   non local maximal  LDIM  =      6   non local SUM 2l+1 LMDIM =     18
   total plane-waves  NPLWV =  90720
   max r-space proj   IRMAX =   4012   max aug-charges    IRDMAX=  81658
   dimension x,y,z NGX =    36 NGY =   36 NGZ =   70
   dimension x,y,z NGXF=    72 NGYF=   72 NGZF=  140
   support grid    NGXF=   144 NGYF=  144 NGZF=  280
   ions per type =               4   4   8
   NGX,Y,Z   is equivalent  to a cutoff of  10.35, 10.35, 10.02 a.u.
   NGXF,Y,Z  is equivalent  to a cutoff of  20.70, 20.70, 20.03 a.u.

 SYSTEM =  CuInSe                                  
 POSCAR =  Cu1-In1-Se2 'I -4 2 d'  #122            

 Startparameter for this run:
   NWRITE =      2    write-flag & timer
   PREC   = accura    normal or accurate (medium, high low for compatibility)
   ISTART =      0    job   : 0-new  1-cont  2-samecut
   ICHARG =      2    charge: 1-file 2-atom 10-const
   ISPIN  =      1    spin polarized calculation?
   LNONCOLLINEAR =      F non collinear calculations
   LSORBIT =      F    spin-orbit coupling
   INIWAV =      1    electr: 0-lowe 1-rand  2-diag
   LASPH  =      F    aspherical Exc in radial PAW
   METAGGA=      F    non-selfconsistent MetaGGA calc.

 Electronic Relaxation 1
   ENCUT  =  300.0 eV  22.05 Ry    4.70 a.u.   8.17  8.17 16.41*2*pi/ulx,y,z
   ENINI  =  300.0     initial cutoff
   ENAUG  =  516.5 eV  augmentation charge cutoff
   NELM   =     80;   NELMIN=  3; NELMDL= -5     # of ELM steps 
   EDIFF  = 0.1E-04   stopping-criterion for ELM
   LREAL  =      T    real-space projection
   NLSPLINE    = F    spline interpolate recip. space projectors
   LCOMPAT=      F    compatible to vasp.4.4
   GGA_COMPAT  = T    GGA compatible to vasp.4.4-vasp.4.6
   LMAXPAW     = -100 max onsite density
   LMAXMIX     =    4 max onsite mixed and CHGCAR
   VOSKOWN=      0    Vosko Wilk Nusair interpolation
   ROPT   =   -0.00025  -0.00025  -0.00025
 Ionic relaxation
   EDIFFG = 0.1E-03   stopping-criterion for IOM
   NSW    =      0    number of steps for IOM
   NBLOCK =      1;   KBLOCK =      1    inner block; outer block 
   IBRION =     -1    ionic relax: 0-MD 1-quasi-New 2-CG
   NFREE  =      0    steps in history (QN), initial steepest desc. (CG)
   ISIF   =      2    stress and relaxation
   IWAVPR =     10    prediction:  0-non 1-charg 2-wave 3-comb
   ISYM   =      2    0-nonsym 1-usesym 2-fastsym
   LCORR  =      T    Harris-Foulkes like correction to forces

   POTIM  = 0.5000    time-step for ionic-motion
   TEIN   =    0.0    initial temperature
   TEBEG  =    0.0;   TEEND  =   0.0 temperature during run
   SMASS  =  -3.00    Nose mass-parameter (am)
   estimated Nose-frequenzy (Omega)   =  0.10E-29 period in steps = 0.13E+47 mass=  -0.764E-27a.u.
   SCALEE = 1.0000    scale energy and forces
   NPACO  =    256;   APACO  = 16.0  distance and # of slots for P.C.
   PSTRESS=    0.0 pullay stress

  Mass of Ions in am
   POMASS =  63.55114.82 78.96
  Ionic Valenz
   ZVAL   =  11.00 13.00  6.00
  Atomic Wigner-Seitz radii
   RWIGS  =  -1.00 -1.00 -1.00
  virtual crystal weights 
   VCA    =   1.00  1.00  1.00
   NELECT =     144.0000    total number of electrons
   NUPDOWN=      -1.0000    fix difference up-down

 DOS related values:
   EMIN   =  10.00;   EMAX   =-10.00  energy-range for DOS
   EFERMI =   0.00
   ISMEAR =     0;   SIGMA  =   0.01  broadening in eV -4-tet -1-fermi 0-gaus

 Electronic relaxation 2 (details)
   IALGO  =     38    algorithm
   LDIAG  =      T    sub-space diagonalisation (order eigenvalues)
   LSUBROT=      F    optimize rotation matrix (better conditioning)
   TURBO    =      0    0=normal 1=particle mesh
   IRESTART =      0    0=no restart 2=restart with 2 vectors
   NREBOOT  =      0    no. of reboots
   NMIN     =      0    reboot dimension
   EREF     =   0.00    reference energy to select bands
   IMIX   =      4    mixing-type and parameters
     AMIX     =   0.40;   BMIX     =  1.00
     AMIX_MAG =   1.60;   BMIX_MAG =  1.00
     AMIN     =   0.10
     WC   =   100.;   INIMIX=   1;  MIXPRE=   1;  MAXMIX= -45

 Intra band minimization:
   WEIMIN = 0.0000     energy-eigenvalue tresh-hold
   EBREAK =  0.39E-08  absolut break condition
   DEPER  =   0.30     relativ break condition  

   TIME   =   0.40     timestep for ELM

  volume/ion in A,a.u.               =      24.28       163.86
  Fermi-wavevector in a.u.,A,eV,Ry     =   1.175975  2.222271 18.815737  1.382918
  Thomas-Fermi vector in A             =   2.312347
 
 Write flags
   LWAVE        =      T    write WAVECAR
   LDOWNSAMPLE  =      F    k-point downsampling of WAVECAR
   LCHARG       =      T    write CHGCAR
   LVTOT        =      F    write LOCPOT, total local potential
   LVHAR        =      F    write LOCPOT, Hartree potential only
   LELF         =      F    write electronic localiz. function (ELF)
   LORBIT       =     11    0 simple, 1 ext, 2 COOP (PROOUT), +10 PAW based schemes


 Dipole corrections
   LMONO  =      F    monopole corrections only (constant potential shift)
   LDIPOL =      F    correct potential (dipole corrections)
   IDIPOL =      0    1-x, 2-y, 3-z, 4-all directions 
   EPSILON=  1.0000000 bulk dielectric constant

 Exchange correlation treatment:
   GGA     =    --    GGA type
   LEXCH   =     8    internal setting for exchange type
   VOSKOWN=      0    Vosko Wilk Nusair interpolation
   LHFCALC =     F    Hartree Fock is set to
   LHFONE  =     F    Hartree Fock one center treatment
   AEXX    =    0.0000 exact exchange contribution

 Linear response parameters
   LEPSILON=     F    determine dielectric tensor
   LRPA    =     F    only Hartree local field effects (RPA)
   LNABLA  =     F    use nabla operator in PAW spheres
   LVEL    =     F    velocity operator in full k-point grid
   LINTERFAST=   F  fast interpolation
   KINTER  =     0    interpolate to denser k-point grid
   CSHIFT  =0.1000    complex shift for real part using Kramers Kronig
   OMEGAMAX=  -1.0    maximum frequency
   DEG_THRESHOLD= 0.2000000E-02 threshold for treating states as degnerate
   RTIME   =   -0.100 relaxation time in fs
  (WPLASMAI=    0.000 imaginary part of plasma frequency in eV, 0.658/RTIME)
   DFIELD  = 0.0000000 0.0000000 0.0000000 field for delta impulse in time
 
 Orbital magnetization related:
   ORBITALMAG=     F  switch on orbital magnetization
   LCHIMAG   =     F  perturbation theory with respect to B field
   DQ        =  0.001000  dq finite difference perturbation B field
   LLRAUG    =     F  two centre corrections for induced B field



--------------------------------------------------------------------------------------------------------


 Static calculation
 charge density and potential will be updated during run
 non-spin polarized calculation
 Variant of blocked Davidson
 Davidson routine will perform the subspace rotation
 perform sub-space diagonalisation
    after iterative eigenvector-optimisation
 modified Broyden-mixing scheme, WC =      100.0
 initial mixing is a Kerker type mixing with AMIX =  0.4000 and BMIX =      1.0000
 Hartree-type preconditioning will be used
 using additional bands          568
 real space projection scheme for non local part
 use partial core corrections
 calculate Harris-corrections to forces 
   (improved forces if not selfconsistent)
 use gradient corrections 
 use of overlap-Matrix (Vanderbilt PP)
 Gauss-broadening in eV      SIGMA  =   0.01


--------------------------------------------------------------------------------------------------------


  energy-cutoff  :      300.00
  volume of cell :      388.50
      direct lattice vectors                 reciprocal lattice vectors
     5.782400000  0.000000000  0.000000000     0.172938572  0.000000000  0.000000000
     0.000000000  5.782400000  0.000000000     0.000000000  0.172938572  0.000000000
     0.000000000  0.000000000 11.619200000     0.000000000  0.000000000  0.086064445

  length of vectors
     5.782400000  5.782400000 11.619200000     0.172938572  0.172938572  0.086064445


 
 k-points in units of 2pi/SCALE and weight: KPOINTS                                 
   0.00000000  0.00000000  0.00000000       0.002
   0.01729386  0.00000000  0.00000000       0.008
   0.03458771  0.00000000  0.00000000       0.008
   0.05188157  0.00000000  0.00000000       0.008
   0.06917543  0.00000000  0.00000000       0.008
   0.08646929  0.00000000  0.00000000       0.004
   0.01729386  0.01729386  0.00000000       0.008
   0.03458771  0.01729386  0.00000000       0.016
   0.05188157  0.01729386  0.00000000       0.016
   0.06917543  0.01729386  0.00000000       0.016
   0.08646929  0.01729386  0.00000000       0.008
   0.03458771  0.03458771  0.00000000       0.008
   0.05188157  0.03458771  0.00000000       0.016
   0.06917543  0.03458771  0.00000000       0.016
   0.08646929  0.03458771  0.00000000       0.008
   0.05188157  0.05188157  0.00000000       0.008
   0.06917543  0.05188157  0.00000000       0.016
   0.08646929  0.05188157  0.00000000       0.008
   0.06917543  0.06917543  0.00000000       0.008
   0.08646929  0.06917543  0.00000000       0.008
   0.08646929  0.08646929  0.00000000       0.002
   0.00000000  0.00000000  0.01721289       0.004
   0.01729386  0.00000000  0.01721289       0.016
   0.03458771  0.00000000  0.01721289       0.016
   0.05188157  0.00000000  0.01721289       0.016
   0.06917543  0.00000000  0.01721289       0.016
   0.08646929  0.00000000  0.01721289       0.008
   0.01729386  0.01729386  0.01721289       0.016
   0.03458771  0.01729386  0.01721289       0.032
   0.05188157  0.01729386  0.01721289       0.032
   0.06917543  0.01729386  0.01721289       0.032
   0.08646929  0.01729386  0.01721289       0.016
   0.03458771  0.03458771  0.01721289       0.016
   0.05188157  0.03458771  0.01721289       0.032
   0.06917543  0.03458771  0.01721289       0.032
   0.08646929  0.03458771  0.01721289       0.016
   0.05188157  0.05188157  0.01721289       0.016
   0.06917543  0.05188157  0.01721289       0.032
   0.08646929  0.05188157  0.01721289       0.016
   0.06917543  0.06917543  0.01721289       0.016
   0.08646929  0.06917543  0.01721289       0.016
   0.08646929  0.08646929  0.01721289       0.004
   0.00000000  0.00000000  0.03442578       0.004
   0.01729386  0.00000000  0.03442578       0.016
   0.03458771  0.00000000  0.03442578       0.016
   0.05188157  0.00000000  0.03442578       0.016
   0.06917543  0.00000000  0.03442578       0.016
   0.08646929  0.00000000  0.03442578       0.008
   0.01729386  0.01729386  0.03442578       0.016
   0.03458771  0.01729386  0.03442578       0.032
   0.05188157  0.01729386  0.03442578       0.032
   0.06917543  0.01729386  0.03442578       0.032
   0.08646929  0.01729386  0.03442578       0.016
   0.03458771  0.03458771  0.03442578       0.016
   0.05188157  0.03458771  0.03442578       0.032
   0.06917543  0.03458771  0.03442578       0.032
   0.08646929  0.03458771  0.03442578       0.016
   0.05188157  0.05188157  0.03442578       0.016
   0.06917543  0.05188157  0.03442578       0.032
   0.08646929  0.05188157  0.03442578       0.016
   0.06917543  0.06917543  0.03442578       0.016
   0.08646929  0.06917543  0.03442578       0.016
   0.08646929  0.08646929  0.03442578       0.004
 
 k-points in reciprocal lattice and weights: KPOINTS                                 
   0.00000000  0.00000000  0.00000000       0.002
   0.10000000  0.00000000  0.00000000       0.008
   0.20000000  0.00000000  0.00000000       0.008
   0.30000000  0.00000000  0.00000000       0.008
   0.40000000  0.00000000  0.00000000       0.008
   0.50000000  0.00000000  0.00000000       0.004
   0.10000000  0.10000000  0.00000000       0.008
   0.20000000  0.10000000  0.00000000       0.016
   0.30000000  0.10000000  0.00000000       0.016
   0.40000000  0.10000000  0.00000000       0.016
   0.50000000  0.10000000  0.00000000       0.008
   0.20000000  0.20000000  0.00000000       0.008
   0.30000000  0.20000000  0.00000000       0.016
   0.40000000  0.20000000  0.00000000       0.016
   0.50000000  0.20000000  0.00000000       0.008
   0.30000000  0.30000000  0.00000000       0.008
   0.40000000  0.30000000  0.00000000       0.016
   0.50000000  0.30000000  0.00000000       0.008
   0.40000000  0.40000000  0.00000000       0.008
   0.50000000  0.40000000  0.00000000       0.008
   0.50000000  0.50000000  0.00000000       0.002
   0.00000000  0.00000000  0.20000000       0.004
   0.10000000  0.00000000  0.20000000       0.016
   0.20000000  0.00000000  0.20000000       0.016
   0.30000000  0.00000000  0.20000000       0.016
   0.40000000  0.00000000  0.20000000       0.016
   0.50000000  0.00000000  0.20000000       0.008
   0.10000000  0.10000000  0.20000000       0.016
   0.20000000  0.10000000  0.20000000       0.032
   0.30000000  0.10000000  0.20000000       0.032
   0.40000000  0.10000000  0.20000000       0.032
   0.50000000  0.10000000  0.20000000       0.016
   0.20000000  0.20000000  0.20000000       0.016
   0.30000000  0.20000000  0.20000000       0.032
   0.40000000  0.20000000  0.20000000       0.032
   0.50000000  0.20000000  0.20000000       0.016
   0.30000000  0.30000000  0.20000000       0.016
   0.40000000  0.30000000  0.20000000       0.032
   0.50000000  0.30000000  0.20000000       0.016
   0.40000000  0.40000000  0.20000000       0.016
   0.50000000  0.40000000  0.20000000       0.016
   0.50000000  0.50000000  0.20000000       0.004
   0.00000000  0.00000000  0.40000000       0.004
   0.10000000  0.00000000  0.40000000       0.016
   0.20000000  0.00000000  0.40000000       0.016
   0.30000000  0.00000000  0.40000000       0.016
   0.40000000  0.00000000  0.40000000       0.016
   0.50000000  0.00000000  0.40000000       0.008
   0.10000000  0.10000000  0.40000000       0.016
   0.20000000  0.10000000  0.40000000       0.032
   0.30000000  0.10000000  0.40000000       0.032
   0.40000000  0.10000000  0.40000000       0.032
   0.50000000  0.10000000  0.40000000       0.016
   0.20000000  0.20000000  0.40000000       0.016
   0.30000000  0.20000000  0.40000000       0.032
   0.40000000  0.20000000  0.40000000       0.032
   0.50000000  0.20000000  0.40000000       0.016
   0.30000000  0.30000000  0.40000000       0.016
   0.40000000  0.30000000  0.40000000       0.032
   0.50000000  0.30000000  0.40000000       0.016
   0.40000000  0.40000000  0.40000000       0.016
   0.50000000  0.40000000  0.40000000       0.016
   0.50000000  0.50000000  0.40000000       0.004
 
 position of ions in fractional coordinates (direct lattice) 
   0.00000000  0.50000000  0.25000000
   0.00000000  0.00000000  0.00000000
   0.50000000  0.00000000  0.75000000
   0.50000000  0.50000000  0.50000000
   0.00000000  0.50000000  0.75000000
   0.00000000  0.00000000  0.50000000
   0.50000000  0.00000000  0.25000000
   0.50000000  0.50000000  0.00000000
   0.75000000  0.26500000  0.37500000
   0.25000000  0.76500000  0.87500000
   0.25000000  0.73500000  0.37500000
   0.75000000  0.23500000  0.87500000
   0.23500000  0.25000000  0.12500000
   0.76500000  0.75000000  0.12500000
   0.73500000  0.75000000  0.62500000
   0.26500000  0.25000000  0.62500000
 
 position of ions in cartesian coordinates  (Angst):
   0.00000000  2.89120000  2.90480000
   0.00000000  0.00000000  0.00000000
   2.89120000  0.00000000  8.71440000
   2.89120000  2.89120000  5.80960000
   0.00000000  2.89120000  8.71440000
   0.00000000  0.00000000  5.80960000
   2.89120000  0.00000000  2.90480000
   2.89120000  2.89120000  0.00000000
   4.33680000  1.53233600  4.35720000
   1.44560000  4.42353600 10.16680000
   1.44560000  4.25006400  4.35720000
   4.33680000  1.35886400 10.16680000
   1.35886400  1.44560000  1.45240000
   4.42353600  4.33680000  1.45240000
   4.25006400  4.33680000  7.26200000
   1.53233600  1.44560000  7.26200000
 


--------------------------------------------------------------------------------------------------------


 k-point  1 :   0.0000 0.0000 0.0000  plane waves:    4581
 k-point  2 :   0.1000 0.0000 0.0000  plane waves:    4599
 k-point  3 :   0.2000 0.0000 0.0000  plane waves:    4576
 k-point  4 :   0.3000 0.0000 0.0000  plane waves:    4594
 k-point  5 :   0.4000 0.0000 0.0000  plane waves:    4578
 k-point  6 :   0.5000 0.0000 0.0000  plane waves:    4576
 k-point  7 :   0.1000 0.1000 0.0000  plane waves:    4589
 k-point  8 :   0.2000 0.1000 0.0000  plane waves:    4571
 k-point  9 :   0.3000 0.1000 0.0000  plane waves:    4581
 k-point 10 :   0.4000 0.1000 0.0000  plane waves:    4589
 k-point 11 :   0.5000 0.1000 0.0000  plane waves:    4594
 k-point 12 :   0.2000 0.2000 0.0000  plane waves:    4593
 k-point 13 :   0.3000 0.2000 0.0000  plane waves:    4584
 k-point 14 :   0.4000 0.2000 0.0000  plane waves:    4585
 k-point 15 :   0.5000 0.2000 0.0000  plane waves:    4594
 k-point 16 :   0.3000 0.3000 0.0000  plane waves:    4578
 k-point 17 :   0.4000 0.3000 0.0000  plane waves:    4599
 k-point 18 :   0.5000 0.3000 0.0000  plane waves:    4594
 k-point 19 :   0.4000 0.4000 0.0000  plane waves:    4584
 k-point 20 :   0.5000 0.4000 0.0000  plane waves:    4584
 k-point 21 :   0.5000 0.5000 0.0000  plane waves:    4608
 k-point 22 :   0.0000 0.0000 0.2000  plane waves:    4589
 k-point 23 :   0.1000 0.0000 0.2000  plane waves:    4587
 k-point 24 :   0.2000 0.0000 0.2000  plane waves:    4588
 k-point 25 :   0.3000 0.0000 0.2000  plane waves:    4589
 k-point 26 :   0.4000 0.0000 0.2000  plane waves:    4578
 k-point 27 :   0.5000 0.0000 0.2000  plane waves:    4580
 k-point 28 :   0.1000 0.1000 0.2000  plane waves:    4573
 k-point 29 :   0.2000 0.1000 0.2000  plane waves:    4583
 k-point 30 :   0.3000 0.1000 0.2000  plane waves:    4587
 k-point 31 :   0.4000 0.1000 0.2000  plane waves:    4575
 k-point 32 :   0.5000 0.1000 0.2000  plane waves:    4582
 k-point 33 :   0.2000 0.2000 0.2000  plane waves:    4589
 k-point 34 :   0.3000 0.2000 0.2000  plane waves:    4580
 k-point 35 :   0.4000 0.2000 0.2000  plane waves:    4579
 k-point 36 :   0.5000 0.2000 0.2000  plane waves:    4582
 k-point 37 :   0.3000 0.3000 0.2000  plane waves:    4587
 k-point 38 :   0.4000 0.3000 0.2000  plane waves:    4597
 k-point 39 :   0.5000 0.3000 0.2000  plane waves:    4598
 k-point 40 :   0.4000 0.4000 0.2000  plane waves:    4598
 k-point 41 :   0.5000 0.4000 0.2000  plane waves:    4604
 k-point 42 :   0.5000 0.5000 0.2000  plane waves:    4580
 k-point 43 :   0.0000 0.0000 0.4000  plane waves:    4589
 k-point 44 :   0.1000 0.0000 0.4000  plane waves:    4576
 k-point 45 :   0.2000 0.0000 0.4000  plane waves:    4588
 k-point 46 :   0.3000 0.0000 0.4000  plane waves:    4573
 k-point 47 :   0.4000 0.0000 0.4000  plane waves:    4576
 k-point 48 :   0.5000 0.0000 0.4000  plane waves:    4578
 k-point 49 :   0.1000 0.1000 0.4000  plane waves:    4585
 k-point 50 :   0.2000 0.1000 0.4000  plane waves:    4586
 k-point 51 :   0.3000 0.1000 0.4000  plane waves:    4574
 k-point 52 :   0.4000 0.1000 0.4000  plane waves:    4573
 k-point 53 :   0.5000 0.1000 0.4000  plane waves:    4570
 k-point 54 :   0.2000 0.2000 0.4000  plane waves:    4569
 k-point 55 :   0.3000 0.2000 0.4000  plane waves:    4575
 k-point 56 :   0.4000 0.2000 0.4000  plane waves:    4584
 k-point 57 :   0.5000 0.2000 0.4000  plane waves:    4576
 k-point 58 :   0.3000 0.3000 0.4000  plane waves:    4579
 k-point 59 :   0.4000 0.3000 0.4000  plane waves:    4596
 k-point 60 :   0.5000 0.3000 0.4000  plane waves:    4596
 k-point 61 :   0.4000 0.4000 0.4000  plane waves:    4602
 k-point 62 :   0.5000 0.4000 0.4000  plane waves:    4610
 k-point 63 :   0.5000 0.5000 0.4000  plane waves:    4608

 maximum and minimum number of plane-waves per node :      4610     4569

 maximum number of plane-waves:      4610
 maximum index in each direction: 
   IXMAX=    8   IYMAX=    8   IZMAX=   16
   IXMIN=   -8   IYMIN=   -8   IZMIN=  -16


 serial   3D FFT for wavefunctions
 parallel 3D FFT for charge:
    minimum data exchange during FFTs selected (reduces bandwidth)


 total amount of memory used by VASP MPI-rank0  3330744. kBytes
=======================================================================

   base      :      30000. kBytes
   nonlr-proj:       9081. kBytes
   fftplans  :     106828. kBytes
   grid      :      50595. kBytes
   one-center:        248. kBytes
   wavefun   :    3133992. kBytes
 
     INWAV:  cpu time    0.0002: real time    0.0004
 Broyden mixing: mesh for mixing (old mesh)
   NGX = 17   NGY = 17   NGZ = 33
  (NGX  = 72   NGY  = 72   NGZ  =140)
  gives a total of   9537 points

 initial charge density was supplied:
 charge density of overlapping atoms calculated
 number of electron     144.0000000 magnetization 
 keeping initial charge density in first step


--------------------------------------------------------------------------------------------------------


 Maximum index for non-local projection operator         3853
 Maximum index for augmentation-charges        79016 (set IRDMAX)


--------------------------------------------------------------------------------------------------------


 First call to EWALD:  gamma=   0.243
 Maximum number of real-space cells 3x 3x 2
 Maximum number of reciprocal cells 2x 2x 4

    FEWALD:  cpu time    0.0011: real time    0.0011


----------------------------------------- Iteration    1(   1)  ---------------------------------------


    POTLOK:  cpu time    0.2068: real time    0.2073
    SETDIJ:  cpu time    0.2618: real time    0.2624
     EDDAV:  cpu time   12.4771: real time   12.5076
       DOS:  cpu time    0.0141: real time    0.0141
    --------------------------------------------
      LOOP:  cpu time   12.9613: real time   12.9939

 eigenvalue-minimisations  : 89192
 total energy-change (2. order) : 0.8157042E+03  (-0.1442037E+04)
 number of electron     144.0000000 magnetization 
 augmentation part      144.0000000 magnetization 

 Free energy of the ion-electron system (eV)
  ---------------------------------------------------
  alpha Z        PSCENC =       448.81149666
  Ewald energy   TEWEN  =     -9390.25499164
  -Hartree energ DENC   =     -4516.24421630
  -exchange      EXHF   =         0.00000000
  -V(xc)+E(xc)   XCENC  =       336.20232366
  PAW double counting   =     10045.22209858   -10473.25581265
  entropy T*S    EENTRO =        -0.00026956
  eigenvalues    EBANDS =       438.40645219
  atomic energy  EATOM  =     13926.81715640
  Solvation  Ediel_sol  =         0.00000000
  ---------------------------------------------------
  free energy    TOTEN  =       815.70423736 eV

  energy without entropy =      815.70450692  energy(sigma->0) =      815.70437214


--------------------------------------------------------------------------------------------------------




----------------------------------------- Iteration    1(   2)  ---------------------------------------


     EDDAV:  cpu time   12.0982: real time   12.1283
       DOS:  cpu time    0.0124: real time    0.0125
    --------------------------------------------
      LOOP:  cpu time   12.1115: real time   12.1427

 eigenvalue-minimisations  : 86152
 total energy-change (2. order) :-0.7885468E+03  (-0.7064819E+03)
 number of electron     144.0000000 magnetization 
 augmentation part      144.0000000 magnetization 

 Free energy of the ion-electron system (eV)
  ---------------------------------------------------
  alpha Z        PSCENC =       448.81149666
  Ewald energy   TEWEN  =     -9390.25499164
  -Hartree energ DENC   =     -4516.24421630
  -exchange      EXHF   =         0.00000000
  -V(xc)+E(xc)   XCENC  =       336.20232366
  PAW double counting   =     10045.22209858   -10473.25581265
  entropy T*S    EENTRO =        -0.00002105
  eigenvalues    EBANDS =      -350.14058235
  atomic energy  EATOM  =     13926.81715640
  Solvation  Ediel_sol  =         0.00000000
  ---------------------------------------------------
  free energy    TOTEN  =        27.15745133 eV

  energy without entropy =       27.15747238  energy(sigma->0) =       27.15746185


--------------------------------------------------------------------------------------------------------




----------------------------------------- Iteration    1(   3)  ---------------------------------------


     EDDAV:  cpu time   13.3178: real time   13.3503
       DOS:  cpu time    0.0109: real time    0.0110
    --------------------------------------------
      LOOP:  cpu time   13.3295: real time   13.3672

 eigenvalue-minimisations  :100096
 total energy-change (2. order) :-0.8940350E+02  (-0.8589615E+02)
 number of electron     144.0000000 magnetization 
 augmentation part      144.0000000 magnetization 

 Free energy of the ion-electron system (eV)
  ---------------------------------------------------
  alpha Z        PSCENC =       448.81149666
  Ewald energy   TEWEN  =     -9390.25499164
  -Hartree energ DENC   =     -4516.24421630
  -exchange      EXHF   =         0.00000000
  -V(xc)+E(xc)   XCENC  =       336.20232366
  PAW double counting   =     10045.22209858   -10473.25581265
  entropy T*S    EENTRO =        -0.00000109
  eigenvalues    EBANDS =      -439.54409974
  atomic energy  EATOM  =     13926.81715640
  Solvation  Ediel_sol  =         0.00000000
  ---------------------------------------------------
  free energy    TOTEN  =       -62.24604611 eV

  energy without entropy =      -62.24604502  energy(sigma->0) =      -62.24604557


--------------------------------------------------------------------------------------------------------




----------------------------------------- Iteration    1(   4)  ---------------------------------------


     EDDAV:  cpu time   12.7163: real time   12.7472
       DOS:  cpu time    0.0115: real time    0.0115
    --------------------------------------------
      LOOP:  cpu time   12.7285: real time   12.7607

 eigenvalue-minimisations  : 93128
 total energy-change (2. order) :-0.1252724E+01  (-0.1250844E+01)
 number of electron     144.0000000 magnetization 
 augmentation part      144.0000000 magnetization 

 Free energy of the ion-electron system (eV)
  ---------------------------------------------------
  alpha Z        PSCENC =       448.81149666
  Ewald energy   TEWEN  =     -9390.25499164
  -Hartree energ DENC   =     -4516.24421630
  -exchange      EXHF   =         0.00000000
  -V(xc)+E(xc)   XCENC  =       336.20232366
  PAW double counting   =     10045.22209858   -10473.25581265
  entropy T*S    EENTRO =        -0.00000110
  eigenvalues    EBANDS =      -440.79682396
  atomic energy  EATOM  =     13926.81715640
  Solvation  Ediel_sol  =         0.00000000
  ---------------------------------------------------
  free energy    TOTEN  =       -63.49877034 eV

  energy without entropy =      -63.49876924  energy(sigma->0) =      -63.49876979


--------------------------------------------------------------------------------------------------------




----------------------------------------- Iteration    1(   5)  ---------------------------------------


     EDDAV:  cpu time   12.9737: real time   13.0069
       DOS:  cpu time    0.0112: real time    0.0112
    CHARGE:  cpu time    0.3148: real time    0.3155
    MIXING:  cpu time    0.0189: real time    0.0190
    --------------------------------------------
      LOOP:  cpu time   13.3196: real time   13.3550

 eigenvalue-minimisations  : 95880
 total energy-change (2. order) :-0.3826166E-02  (-0.3825373E-02)
 number of electron     144.0000002 magnetization 
 augmentation part       46.4004953 magnetization 

 Broyden mixing:
  rms(total) = 0.11689E+01    rms(broyden)= 0.11688E+01
  rms(prec ) = 0.15107E+01
  weight for this iteration     100.00

 Free energy of the ion-electron system (eV)
  ---------------------------------------------------
  alpha Z        PSCENC =       448.81149666
  Ewald energy   TEWEN  =     -9390.25499164
  -Hartree energ DENC   =     -4516.24421630
  -exchange      EXHF   =         0.00000000
  -V(xc)+E(xc)   XCENC  =       336.20232366
  PAW double counting   =     10045.22209858   -10473.25581265
  entropy T*S    EENTRO =        -0.00000110
  eigenvalues    EBANDS =      -440.80065013
  atomic energy  EATOM  =     13926.81715640
  Solvation  Ediel_sol  =         0.00000000
  ---------------------------------------------------
  free energy    TOTEN  =       -63.50259651 eV

  energy without entropy =      -63.50259541  energy(sigma->0) =      -63.50259596


--------------------------------------------------------------------------------------------------------




----------------------------------------- Iteration    1(   6)  ---------------------------------------


    POTLOK:  cpu time    0.2060: real time    0.2064
    SETDIJ:  cpu time    0.2486: real time    0.2492
     EDDAV:  cpu time   14.8134: real time   14.8499
       DOS:  cpu time    0.0033: real time    0.0033
    CHARGE:  cpu time    0.3084: real time    0.3095
    MIXING:  cpu time    0.0111: real time    0.0112
    --------------------------------------------
      LOOP:  cpu time   15.5919: real time   15.6319

 eigenvalue-minimisations  :117616
 total energy-change (2. order) : 0.5740930E+00  (-0.1495597E+00)
 number of electron     144.0000003 magnetization 
 augmentation part       49.8449857 magnetization 

 Broyden mixing:
  rms(total) = 0.86729E+00    rms(broyden)= 0.86713E+00
  rms(prec ) = 0.11142E+01
  weight for this iteration     100.00

 eigenvalues of (default mixing * dielectric matrix)
  average eigenvalue GAMMA=   0.5879
  0.5879

 Free energy of the ion-electron system (eV)
  ---------------------------------------------------
  alpha Z        PSCENC =       448.81149666
  Ewald energy   TEWEN  =     -9390.25499164
  -Hartree energ DENC   =     -4413.19810597
  -exchange      EXHF   =         0.00000000
  -V(xc)+E(xc)   XCENC  =       333.01063303
  PAW double counting   =     10012.78483254   -10412.25351810
  entropy T*S    EENTRO =        -0.00000000
  eigenvalues    EBANDS =      -568.64600642
  atomic energy  EATOM  =     13926.81715640
  Solvation  Ediel_sol  =         0.00000000
  ---------------------------------------------------
  free energy    TOTEN  =       -62.92850350 eV

  energy without entropy =      -62.92850350  energy(sigma->0) =      -62.92850350


--------------------------------------------------------------------------------------------------------




----------------------------------------- Iteration    1(   7)  ---------------------------------------


    POTLOK:  cpu time    0.2004: real time    0.2009
    SETDIJ:  cpu time    0.2461: real time    0.2466
     EDDAV:  cpu time   15.0234: real time   15.0611
       DOS:  cpu time    0.0117: real time    0.0117
    CHARGE:  cpu time    0.3105: real time    0.3116
    MIXING:  cpu time    0.0111: real time    0.0112
    --------------------------------------------
      LOOP:  cpu time   15.8042: real time   15.8454

 eigenvalue-minimisations  :119552
 total energy-change (2. order) : 0.2570433E+01  (-0.6458479E-01)
 number of electron     144.0000002 magnetization 
 augmentation part       48.4550352 magnetization 

 Broyden mixing:
  rms(total) = 0.23515E+00    rms(broyden)= 0.23510E+00
  rms(prec ) = 0.29487E+00
  weight for this iteration     100.00

 eigenvalues of (default mixing * dielectric matrix)
  average eigenvalue GAMMA=   1.2023
  1.8340  0.5705

 Free energy of the ion-electron system (eV)
  ---------------------------------------------------
  alpha Z        PSCENC =       448.81149666
  Ewald energy   TEWEN  =     -9390.25499164
  -Hartree energ DENC   =     -4456.65266453
  -exchange      EXHF   =         0.00000000
  -V(xc)+E(xc)   XCENC  =       335.13340063
  PAW double counting   =     10146.26467675   -10570.11696838
  entropy T*S    EENTRO =        -0.00000187
  eigenvalues    EBANDS =      -500.36017424
  atomic energy  EATOM  =     13926.81715640
  Solvation  Ediel_sol  =         0.00000000
  ---------------------------------------------------
  free energy    TOTEN  =       -60.35807021 eV

  energy without entropy =      -60.35806834  energy(sigma->0) =      -60.35806927


--------------------------------------------------------------------------------------------------------




----------------------------------------- Iteration    1(   8)  ---------------------------------------


    POTLOK:  cpu time    0.1966: real time    0.1970
    SETDIJ:  cpu time    0.2434: real time    0.2439
     EDDAV:  cpu time   15.5109: real time   15.5487
       DOS:  cpu time    0.0105: real time    0.0106
    CHARGE:  cpu time    0.3150: real time    0.3160
    MIXING:  cpu time    0.0111: real time    0.0112
    --------------------------------------------
      LOOP:  cpu time   16.2885: real time   16.3298

 eigenvalue-minimisations  :125344
 total energy-change (2. order) : 0.4114579E-01  (-0.8719590E-02)
 number of electron     144.0000002 magnetization 
 augmentation part       48.1838545 magnetization 

 Broyden mixing:
  rms(total) = 0.17376E+00    rms(broyden)= 0.17374E+00
  rms(prec ) = 0.21523E+00
  weight for this iteration     100.00

 eigenvalues of (default mixing * dielectric matrix)
  average eigenvalue GAMMA=   1.4148
  0.6140  1.2732  2.3572

 Free energy of the ion-electron system (eV)
  ---------------------------------------------------
  alpha Z        PSCENC =       448.81149666
  Ewald energy   TEWEN  =     -9390.25499164
  -Hartree energ DENC   =     -4459.24693930
  -exchange      EXHF   =         0.00000000
  -V(xc)+E(xc)   XCENC  =       335.84155661
  PAW double counting   =     10282.73523235   -10716.40945596
  entropy T*S    EENTRO =        -0.00000026
  eigenvalues    EBANDS =      -488.61097929
  atomic energy  EATOM  =     13926.81715640
  Solvation  Ediel_sol  =         0.00000000
  ---------------------------------------------------
  free energy    TOTEN  =       -60.31692442 eV

  energy without entropy =      -60.31692417  energy(sigma->0) =      -60.31692429


--------------------------------------------------------------------------------------------------------




----------------------------------------- Iteration    1(   9)  ---------------------------------------


    POTLOK:  cpu time    0.1905: real time    0.1909
    SETDIJ:  cpu time    0.2520: real time    0.2525
     EDDAV:  cpu time   13.3842: real time   13.4169
       DOS:  cpu time    0.0121: real time    0.0121
    CHARGE:  cpu time    0.3088: real time    0.3098
    MIXING:  cpu time    0.0236: real time    0.0237
    --------------------------------------------
      LOOP:  cpu time   14.1722: real time   14.2081

 eigenvalue-minimisations  :100864
 total energy-change (2. order) : 0.1271765E-02  (-0.8589473E-02)
 number of electron     144.0000002 magnetization 
 augmentation part       48.6269186 magnetization 

 Broyden mixing:
  rms(total) = 0.11970E+00    rms(broyden)= 0.11968E+00
  rms(prec ) = 0.15399E+00
  weight for this iteration     100.00

 eigenvalues of (default mixing * dielectric matrix)
  average eigenvalue GAMMA=   1.3842
  2.5643  0.6481  0.9281  1.3962

 Free energy of the ion-electron system (eV)
  ---------------------------------------------------
  alpha Z        PSCENC =       448.81149666
  Ewald energy   TEWEN  =     -9390.25499164
  -Hartree energ DENC   =     -4446.91702179
  -exchange      EXHF   =         0.00000000
  -V(xc)+E(xc)   XCENC  =       335.49502214
  PAW double counting   =     10320.50059534   -10753.25781997
  entropy T*S    EENTRO =        -0.00000649
  eigenvalues    EBANDS =      -501.51008332
  atomic energy  EATOM  =     13926.81715640
  Solvation  Ediel_sol  =         0.00000000
  ---------------------------------------------------
  free energy    TOTEN  =       -60.31565266 eV

  energy without entropy =      -60.31564617  energy(sigma->0) =      -60.31564941


--------------------------------------------------------------------------------------------------------




----------------------------------------- Iteration    1(  10)  ---------------------------------------


    POTLOK:  cpu time    0.1930: real time    0.1934
    SETDIJ:  cpu time    0.2495: real time    0.2502
     EDDAV:  cpu time   12.6501: real time   12.6810
       DOS:  cpu time    0.0107: real time    0.0107
    CHARGE:  cpu time    0.3126: real time    0.3137
    MIXING:  cpu time    0.0200: real time    0.0201
    --------------------------------------------
      LOOP:  cpu time   13.4368: real time   13.4714

 eigenvalue-minimisations  : 92376
 total energy-change (2. order) : 0.3310451E-01  (-0.2357244E-02)
 number of electron     144.0000002 magnetization 
 augmentation part       48.3778249 magnetization 

 Broyden mixing:
  rms(total) = 0.20767E-01    rms(broyden)= 0.20744E-01
  rms(prec ) = 0.25854E-01
  weight for this iteration     100.00

 eigenvalues of (default mixing * dielectric matrix)
  average eigenvalue GAMMA=   1.4630
  2.6209  1.9839  1.2511  0.6732  0.7860

 Free energy of the ion-electron system (eV)
  ---------------------------------------------------
  alpha Z        PSCENC =       448.81149666
  Ewald energy   TEWEN  =     -9390.25499164
  -Hartree energ DENC   =     -4453.08657602
  -exchange      EXHF   =         0.00000000
  -V(xc)+E(xc)   XCENC  =       335.79398072
  PAW double counting   =     10341.27395978   -10777.25574689
  entropy T*S    EENTRO =        -0.00000036
  eigenvalues    EBANDS =      -492.38182680
  atomic energy  EATOM  =     13926.81715640
  Solvation  Ediel_sol  =         0.00000000
  ---------------------------------------------------
  free energy    TOTEN  =       -60.28254815 eV

  energy without entropy =      -60.28254779  energy(sigma->0) =      -60.28254797


--------------------------------------------------------------------------------------------------------




----------------------------------------- Iteration    1(  11)  ---------------------------------------


    POTLOK:  cpu time    0.1998: real time    0.2002
    SETDIJ:  cpu time    0.2504: real time    0.2509
     EDDAV:  cpu time   12.5157: real time   12.5486
       DOS:  cpu time    0.0107: real time    0.0107
    CHARGE:  cpu time    0.3070: real time    0.3080
    MIXING:  cpu time    0.0114: real time    0.0115
    --------------------------------------------
      LOOP:  cpu time   13.2959: real time   13.3323

 eigenvalue-minimisations  : 91000
 total energy-change (2. order) :-0.8253930E-03  (-0.1179263E-02)
 number of electron     144.0000002 magnetization 
 augmentation part       48.4259439 magnetization 

 Broyden mixing:
  rms(total) = 0.81591E-02    rms(broyden)= 0.81572E-02
  rms(prec ) = 0.10101E-01
  weight for this iteration     100.00

 eigenvalues of (default mixing * dielectric matrix)
  average eigenvalue GAMMA=   1.4764
  2.7054  2.3113  1.3046  0.6766  0.7898  1.0709

 Free energy of the ion-electron system (eV)
  ---------------------------------------------------
  alpha Z        PSCENC =       448.81149666
  Ewald energy   TEWEN  =     -9390.25499164
  -Hartree energ DENC   =     -4452.05360797
  -exchange      EXHF   =         0.00000000
  -V(xc)+E(xc)   XCENC  =       335.74749312
  PAW double counting   =     10337.39951169   -10772.77537968
  entropy T*S    EENTRO =        -0.00000044
  eigenvalues    EBANDS =      -493.97505169
  atomic energy  EATOM  =     13926.81715640
  Solvation  Ediel_sol  =         0.00000000
  ---------------------------------------------------
  free energy    TOTEN  =       -60.28337354 eV

  energy without entropy =      -60.28337310  energy(sigma->0) =      -60.28337332


--------------------------------------------------------------------------------------------------------




----------------------------------------- Iteration    1(  12)  ---------------------------------------


    POTLOK:  cpu time    0.1901: real time    0.1905
    SETDIJ:  cpu time    0.2530: real time    0.2535
     EDDAV:  cpu time   12.6041: real time   12.6354
       DOS:  cpu time    0.0110: real time    0.0111
    CHARGE:  cpu time    0.3203: real time    0.3214
    MIXING:  cpu time    0.0134: real time    0.0135
    --------------------------------------------
      LOOP:  cpu time   13.3930: real time   13.4277

 eigenvalue-minimisations  : 91880
 total energy-change (2. order) :-0.3097761E-03  (-0.2324854E-03)
 number of electron     144.0000002 magnetization 
 augmentation part       48.4007655 magnetization 

 Broyden mixing:
  rms(total) = 0.72637E-02    rms(broyden)= 0.72622E-02
  rms(prec ) = 0.90905E-02
  weight for this iteration     100.00

 eigenvalues of (default mixing * dielectric matrix)
  average eigenvalue GAMMA=   1.5496
  3.0336  2.6697  1.5052  1.3158  0.6840  0.8670  0.7719

 Free energy of the ion-electron system (eV)
  ---------------------------------------------------
  alpha Z        PSCENC =       448.81149666
  Ewald energy   TEWEN  =     -9390.25499164
  -Hartree energ DENC   =     -4452.89953508
  -exchange      EXHF   =         0.00000000
  -V(xc)+E(xc)   XCENC  =       335.78217435
  PAW double counting   =     10336.70696272   -10772.31999073
  entropy T*S    EENTRO =        -0.00000041
  eigenvalues    EBANDS =      -492.92695559
  atomic energy  EATOM  =     13926.81715640
  Solvation  Ediel_sol  =         0.00000000
  ---------------------------------------------------
  free energy    TOTEN  =       -60.28368332 eV

  energy without entropy =      -60.28368290  energy(sigma->0) =      -60.28368311


--------------------------------------------------------------------------------------------------------




----------------------------------------- Iteration    1(  13)  ---------------------------------------


    POTLOK:  cpu time    0.1907: real time    0.1912
    SETDIJ:  cpu time    0.2576: real time    0.2582
     EDDAV:  cpu time   12.5513: real time   12.5825
       DOS:  cpu time    0.0107: real time    0.0107
    CHARGE:  cpu time    0.3087: real time    0.3098
    MIXING:  cpu time    0.0281: real time    0.0282
    --------------------------------------------
      LOOP:  cpu time   13.3481: real time   13.3828

 eigenvalue-minimisations  : 90904
 total energy-change (2. order) : 0.5549254E-04  (-0.3281416E-04)
 number of electron     144.0000002 magnetization 
 augmentation part       48.4200340 magnetization 

 Broyden mixing:
  rms(total) = 0.36314E-02    rms(broyden)= 0.36302E-02
  rms(prec ) = 0.47222E-02
  weight for this iteration     100.00

 eigenvalues of (default mixing * dielectric matrix)
  average eigenvalue GAMMA=   1.5414
  3.1665  2.4999  1.7497  1.3711  1.1808  0.9409  0.6980  0.7241

 Free energy of the ion-electron system (eV)
  ---------------------------------------------------
  alpha Z        PSCENC =       448.81149666
  Ewald energy   TEWEN  =     -9390.25499164
  -Hartree energ DENC   =     -4452.59721105
  -exchange      EXHF   =         0.00000000
  -V(xc)+E(xc)   XCENC  =       335.76647886
  PAW double counting   =     10334.99528134   -10770.36351633
  entropy T*S    EENTRO =        -0.00000045
  eigenvalues    EBANDS =      -493.45832162
  atomic energy  EATOM  =     13926.81715640
  Solvation  Ediel_sol  =         0.00000000
  ---------------------------------------------------
  free energy    TOTEN  =       -60.28362783 eV

  energy without entropy =      -60.28362738  energy(sigma->0) =      -60.28362760


--------------------------------------------------------------------------------------------------------




----------------------------------------- Iteration    1(  14)  ---------------------------------------


    POTLOK:  cpu time    0.1998: real time    0.2002
    SETDIJ:  cpu time    0.2456: real time    0.2461
     EDDAV:  cpu time   12.4418: real time   12.4722
       DOS:  cpu time    0.0108: real time    0.0108
    CHARGE:  cpu time    0.3074: real time    0.3084
    MIXING:  cpu time    0.0155: real time    0.0156
    --------------------------------------------
      LOOP:  cpu time   13.2219: real time   13.2558

 eigenvalue-minimisations  : 89576
 total energy-change (2. order) : 0.2346625E-04  (-0.9038840E-05)
 number of electron     144.0000002 magnetization 
 augmentation part       48.4124787 magnetization 

 Broyden mixing:
  rms(total) = 0.52028E-03    rms(broyden)= 0.51913E-03
  rms(prec ) = 0.60789E-03
  weight for this iteration     100.00

 eigenvalues of (default mixing * dielectric matrix)
  average eigenvalue GAMMA=   1.5915
  3.4406  2.5568  2.3317  1.5241  1.2733  0.9236  0.8680  0.7028  0.7028

 Free energy of the ion-electron system (eV)
  ---------------------------------------------------
  alpha Z        PSCENC =       448.81149666
  Ewald energy   TEWEN  =     -9390.25499164
  -Hartree energ DENC   =     -4452.80197709
  -exchange      EXHF   =         0.00000000
  -V(xc)+E(xc)   XCENC  =       335.77525811
  PAW double counting   =     10335.42722176   -10770.87291221
  entropy T*S    EENTRO =        -0.00000043
  eigenvalues    EBANDS =      -493.18485593
  atomic energy  EATOM  =     13926.81715640
  Solvation  Ediel_sol  =         0.00000000
  ---------------------------------------------------
  free energy    TOTEN  =       -60.28360436 eV

  energy without entropy =      -60.28360393  energy(sigma->0) =      -60.28360414


--------------------------------------------------------------------------------------------------------




----------------------------------------- Iteration    1(  15)  ---------------------------------------


    POTLOK:  cpu time    0.1928: real time    0.1932
    SETDIJ:  cpu time    0.2581: real time    0.2586
     EDDAV:  cpu time   12.7984: real time   12.8297
       DOS:  cpu time    0.0104: real time    0.0104
    --------------------------------------------
      LOOP:  cpu time   13.2606: real time   13.2946

 eigenvalue-minimisations  : 93696
 total energy-change (2. order) :-0.3115803E-05  (-0.3401219E-05)
 number of electron     144.0000002 magnetization 
 augmentation part       48.4124787 magnetization 

 Free energy of the ion-electron system (eV)
  ---------------------------------------------------
  alpha Z        PSCENC =       448.81149666
  Ewald energy   TEWEN  =     -9390.25499164
  -Hartree energ DENC   =     -4452.81575977
  -exchange      EXHF   =         0.00000000
  -V(xc)+E(xc)   XCENC  =       335.77528603
  PAW double counting   =     10335.36891902   -10770.80110051
  entropy T*S    EENTRO =        -0.00000043
  eigenvalues    EBANDS =      -493.18461324
  atomic energy  EATOM  =     13926.81715640
  Solvation  Ediel_sol  =         0.00000000
  ---------------------------------------------------
  free energy    TOTEN  =       -60.28360748 eV

  energy without entropy =      -60.28360704  energy(sigma->0) =      -60.28360726


--------------------------------------------------------------------------------------------------------




 average (electrostatic) potential at core
  the test charge radii are     1.0053  1.0774  1.0808
  (the norm of the test charge is              1.0000)
       1 -38.8268       2 -38.8268       3 -38.8268       4 -38.8268       5 -97.8727
       6 -97.8727       7 -97.8727       8 -97.8727       9 -54.7547      10 -54.7547
      11 -54.7547      12 -54.7547      13 -54.7547      14 -54.7547      15 -54.7547
      16 -54.7547
 
 
 
 E-fermi :   3.8926     XC(G=0):  -9.3521     alpha+bet : -9.0850


 k-point     1 :       0.0000    0.0000    0.0000
  band No.  band energies     occupation 
      1     -11.4080      2.00000
      2     -11.4080      2.00000
      3     -11.4002      2.00000
      4     -11.3975      2.00000
      5     -11.3975      2.00000
      6     -11.2955      2.00000
      7     -11.2955      2.00000
      8     -11.1108      2.00000
      9     -11.0873      2.00000
     10     -11.0873      2.00000
     11     -11.0675      2.00000
     12     -11.0675      2.00000
     13     -11.0154      2.00000
     14     -11.0154      2.00000
     15     -11.0086      2.00000
     16     -11.0035      2.00000
     17     -10.9906      2.00000
     18     -10.9753      2.00000
     19     -10.9753      2.00000
     20     -10.9744      2.00000
     21     -10.2215      2.00000
     22      -9.5044      2.00000
     23      -9.5044      2.00000
     24      -8.7201      2.00000
     25      -8.7201      2.00000
     26      -8.7102      2.00000
     27      -8.6908      2.00000
     28      -8.6908      2.00000
     29      -2.9035      2.00000
     30      -2.4212      2.00000
     31      -2.4212      2.00000
     32      -1.8874      2.00000
     33      -0.8521      2.00000
     34      -0.3382      2.00000
     35      -0.3349      2.00000
     36      -0.3349      2.00000
     37      -0.2662      2.00000
     38       0.0647      2.00000
     39       0.0647      2.00000
     40       0.3678      2.00000
     41       0.3678      2.00000
     42       0.4691      2.00000
     43       0.4691      2.00000
     44       0.5519      2.00000
     45       0.5519      2.00000
     46       0.6872      2.00000
     47       0.6872      2.00000
     48       0.8525      2.00000
     49       0.8525      2.00000
     50       0.9490      2.00000
     51       0.9490      2.00000
     52       1.0007      2.00000
     53       2.0372      2.00000
     54       2.0372      2.00000
     55       2.0517      2.00000
     56       2.0786      2.00000
     57       2.1537      2.00000
     58       2.1918      2.00000
     59       2.1918      2.00000
     60       2.4078      2.00000
     61       2.4315      2.00000
     62       2.4315      2.00000
     63       2.5261      2.00000
     64       2.7150      2.00000
     65       2.7150      2.00000
     66       2.8720      2.00000
     67       2.8720      2.00000
     68       3.1128      2.00000
     69       3.1128      2.00000
     70       3.8335      2.00000
     71       3.8695      1.99894
     72       3.8695      1.99894
     73       3.9127      0.00448
     74       5.8603      0.00000
     75       5.8603      0.00000
     76       5.8970      0.00000
     77       5.9159      0.00000
     78       5.9159      0.00000
     79       6.2963      0.00000
     80       6.6836      0.00000
     81       6.6836      0.00000
     82       7.6779      0.00000
     83       7.6779      0.00000
     84       7.9002      0.00000
     85       7.9002      0.00000
     86       8.5034      0.00000
     87       8.6667      0.00000
     88       8.6799      0.00000
     89       8.6799      0.00000
     90       8.8208      0.00000
     91       9.9781      0.00000
     92       9.9781      0.00000
     93      10.5369      0.00000
     94      10.5369      0.00000
     95      10.5447      0.00000
     96      10.6307      0.00000
     97      10.9558      0.00000
     98      10.9558      0.00000
     99      11.0502      0.00000
    100      11.0502      0.00000
    101      13.0646      0.00000
    102      13.1417      0.00000
    103      13.1417      0.00000
    104      13.1840      0.00000
    105      13.9371      0.00000
    106      13.9371      0.00000
    107      13.9738      0.00000
    108      13.9738      0.00000
    109      14.0626      0.00000
    110      14.1722      0.00000
    111      14.1722      0.00000
    112      14.1952      0.00000
    113      14.5199      0.00000
    114      14.6853      0.00000
    115      15.0192      0.00000
    116      15.0193      0.00000
    117      15.4673      0.00000
    118      15.5152      0.00000
    119      15.5152      0.00000
    120      15.7195      0.00000
    121      15.9505      0.00000
    122      15.9505      0.00000
    123      16.4509      0.00000
    124      16.5211      0.00000
    125      16.5211      0.00000
    126      16.7810      0.00000
    127      16.7810      0.00000
    128      16.8444      0.00000
    129      16.8697      0.00000
    130      16.8697      0.00000
    131      16.8733      0.00000
    132      16.8733      0.00000
    133      16.9270      0.00000
    134      16.9270      0.00000
    135      17.1378      0.00000
    136      17.1378      0.00000
    137      17.2051      0.00000
    138      17.2051      0.00000
    139      17.6491      0.00000
    140      17.6896      0.00000
    141      17.6896      0.00000
    142      17.9052      0.00000
    143      17.9052      0.00000
    144      17.9216      0.00000
    145      17.9217      0.00000
    146      18.1417      0.00000
    147      19.6969      0.00000
    148      19.6969      0.00000
    149      20.5435      0.00000
    150      20.5437      0.00000
[...]
    467      55.6815      0.00000
    468      55.6815      0.00000
    469      55.8318      0.00000
    470      55.8318      0.00000
    471      55.8318      0.00000
    472      55.8318      0.00000
    473      56.0868      0.00000
    474      56.0868      0.00000
    475      56.0868      0.00000
    476      56.0868      0.00000
    477      56.5513      0.00000
    478      56.5513      0.00000
    479      56.5513      0.00000
    480      56.5513      0.00000
    481      56.9313      0.00000
    482      56.9313      0.00000
    483      56.9313      0.00000
    484      56.9313      0.00000
    485      57.3841      0.00000
    486      57.3841      0.00000
    487      57.3841      0.00000
    488      57.3841      0.00000
    489      57.6351      0.00000
    490      57.6351      0.00000
    491      57.6351      0.00000
    492      57.6351      0.00000
    493      58.0250      0.00000
    494      58.0250      0.00000
    495      58.0250      0.00000
    496      58.0250      0.00000
    497      58.4419      0.00000
    498      58.4419      0.00000
    499      58.4419      0.00000
    500      58.4419      0.00000
    501      58.7180      0.00000
    502      58.7180      0.00000
    503      58.7180      0.00000
    504      58.7180      0.00000
    505      59.0836      0.00000
    506      59.0836      0.00000
    507      59.0836      0.00000
    508      59.0836      0.00000
    509      59.3487      0.00000
    510      59.3487      0.00000
    511      59.3487      0.00000
    512      59.3487      0.00000
    513      59.7151      0.00000
    514      59.7151      0.00000
    515      59.7151      0.00000
    516      59.7151      0.00000
    517      60.0741      0.00000
    518      60.0741      0.00000
    519      60.0741      0.00000
    520      60.0741      0.00000
    521      60.5174      0.00000
    522      60.5174      0.00000
    523      60.5174      0.00000
    524      60.5174      0.00000
    525      60.8850      0.00000
    526      60.8850      0.00000
    527      60.8850      0.00000
    528      60.8850      0.00000
    529      61.2852      0.00000
    530      61.2852      0.00000
    531      61.2852      0.00000
    532      61.2852      0.00000
    533      61.4704      0.00000
    534      61.4704      0.00000
    535      61.4704      0.00000
    536      61.4704      0.00000
    537      61.7374      0.00000
    538      61.7374      0.00000
    539      61.7374      0.00000
    540      61.7374      0.00000
    541      61.9362      0.00000
    542      61.9362      0.00000
    543      61.9362      0.00000
    544      61.9362      0.00000
    545      62.3323      0.00000
    546      62.3323      0.00000
    547      62.3323      0.00000
    548      62.3323      0.00000
    549      62.7128      0.00000
    550      62.7128      0.00000
    551      62.7128      0.00000
    552      62.7128      0.00000
    553      62.7855      0.00000
    554      62.7855      0.00000
    555      62.7855      0.00000
    556      62.7855      0.00000
    557      63.1450      0.00000
    558      63.1450      0.00000
    559      63.1450      0.00000
    560      63.1450      0.00000
    561      63.6479      0.00000
    562      63.6479      0.00000
    563      63.6479      0.00000
    564      63.6479      0.00000
    565      63.8263      0.00000
    566      63.8263      0.00000
    567      63.8263      0.00000
    568      63.8263      0.00000
    569      64.0386      0.00000
    570      64.0386      0.00000
    571      64.0386      0.00000
    572      64.0386      0.00000
    573      64.6618      0.00000
    574      64.6618      0.00000
    575      64.6618      0.00000
    576      64.6618      0.00000
    577      64.7982      0.00000
    578      64.7982      0.00000
    579      64.7982      0.00000
    580      64.7982      0.00000
    581      65.1940      0.00000
    582      65.1940      0.00000
    583      65.1940      0.00000
    584      65.1940      0.00000
    585      65.4964      0.00000
    586      65.4964      0.00000
    587      65.4964      0.00000
    588      65.4964      0.00000
    589      65.9368      0.00000
    590      65.9368      0.00000
    591      65.9368      0.00000
    592      65.9368      0.00000
    593      66.2588      0.00000
    594      66.2588      0.00000
    595      66.2588      0.00000
    596      66.2588      0.00000
    597      66.6264      0.00000
    598      66.6264      0.00000
    599      66.6264      0.00000
    600      66.6264      0.00000
    601      67.1372      0.00000
    602      67.1372      0.00000
    603      67.1372      0.00000
    604      67.1372      0.00000
    605      67.3916      0.00000
    606      67.3916      0.00000
    607      67.3916      0.00000
    608      67.3916      0.00000
    609      67.4981      0.00000
    610      67.4981      0.00000
    611      67.4981      0.00000
    612      67.4981      0.00000
    613      67.8844      0.00000
    614      67.8844      0.00000
    615      67.8844      0.00000
    616      67.8844      0.00000
    617      68.1936      0.00000
    618      68.1936      0.00000
    619      68.1936      0.00000
    620      68.1936      0.00000
    621      68.4509      0.00000
    622      68.4509      0.00000
    623      68.4509      0.00000
    624      68.4509      0.00000
    625      68.8406      0.00000
    626      68.8406      0.00000
    627      68.8406      0.00000
    628      68.8406      0.00000
    629      69.2945      0.00000
    630      69.2945      0.00000
    631      69.2947      0.00000
    632      69.2950      0.00000
    633      69.6176      0.00000
    634      69.6179      0.00000
    635      69.6186      0.00000
    636      69.6333      0.00000
    637      70.1257      0.00000
    638      70.1397      0.00000
    639      70.2094      0.00000
    640      70.2551      0.00000


--------------------------------------------------------------------------------------------------------


 soft charge-density along one line, spin component           1
         0         1         2         3         4         5         6         7         8         9
 total charge-density along one line
 
 pseudopotential strength for first ion, spin component:           1
 -5.498  -0.000  -0.000  -0.000  -0.004  -0.699   0.000   0.000
 -0.000  -5.508   0.000   0.000   0.000   0.000  -0.695  -0.000
 -0.000   0.000  -5.509   0.000   0.000   0.000  -0.000  -0.694
 -0.000   0.000   0.000  -5.508  -0.000   0.000  -0.000  -0.000
 -0.004   0.000   0.000  -0.000  -5.495   0.002  -0.000  -0.000
 -0.699   0.000   0.000   0.000   0.002   1.893  -0.000  -0.000
  0.000  -0.695  -0.000  -0.000  -0.000  -0.000   1.891   0.000
  0.000  -0.000  -0.694  -0.000  -0.000  -0.000   0.000   1.890
  0.000  -0.000  -0.000  -0.695   0.000  -0.000   0.000   0.000
  0.002  -0.000  -0.000   0.000  -0.700  -0.001   0.000   0.000
 -0.000   0.000   0.001   0.000   0.000  -0.000   0.000  -0.000
  0.000  -0.000  -0.000  -0.000  -0.000  -0.000   0.000   0.000
 -0.000  -0.000  -0.000  -0.003  -0.000   0.000   0.000   0.000
 -0.003   0.000  -0.000  -0.000   0.000   0.003   0.000   0.000
  0.000  -0.003   0.000   0.000  -0.000  -0.000   0.003  -0.000
  0.000   0.000  -0.000   0.001   0.000  -0.000  -0.000   0.000
  0.001  -0.000  -0.000   0.000  -0.000  -0.001   0.000   0.000
  0.000   0.001   0.000  -0.000   0.000  -0.000  -0.001  -0.000
 total augmentation occupancy for first ion, spin component:           1
  1.940  -0.000   0.000   0.000  -0.004  -0.019   0.000   0.000  -0.000   0.006   0.000   0.000   0.000  -0.033   0.000   0.000
  0.000   1.940   0.000  -0.000  -0.000   0.000  -0.015   0.000  -0.000   0.000  -0.000  -0.000  -0.005   0.000  -0.030   0.000
  0.000   0.000   1.939  -0.000  -0.000   0.000   0.000  -0.026  -0.000   0.000   0.002  -0.002  -0.000  -0.000   0.000   0.000
  0.000   0.000   0.000   1.940   0.000   0.000   0.000   0.000  -0.015   0.000   0.000   0.000  -0.030   0.000   0.005  -0.007
 -0.004  -0.000  -0.000   0.000   1.942   0.006   0.000   0.000  -0.000  -0.032   0.000   0.000  -0.000   0.002  -0.000   0.000
 -0.019  -0.000   0.000  -0.000   0.006   0.098   0.000   0.000   0.000   0.000   0.000   0.000   0.000   0.099   0.000   0.000
  0.000  -0.015   0.000   0.000   0.000   0.000   0.102   0.000  -0.000   0.000   0.000   0.000  -0.001   0.000   0.098   0.000
  0.000   0.000  -0.026  -0.000   0.000  -0.000   0.000   0.025   0.000  -0.000   0.005  -0.004  -0.000   0.000   0.000   0.000
 -0.000  -0.000  -0.000  -0.015  -0.000   0.000   0.000   0.000   0.102  -0.000   0.000  -0.000   0.098   0.000   0.001  -0.009
  0.006  -0.000   0.000   0.000  -0.032   0.000  -0.000  -0.000   0.000   0.026  -0.000   0.000  -0.000   0.002   0.000  -0.000
  0.000   0.000   0.002  -0.000   0.000  -0.000  -0.000   0.005   0.000   0.000   0.934  -0.325  -0.000  -0.000  -0.000   0.000
  0.000   0.000  -0.002   0.000  -0.000   0.000  -0.000  -0.004   0.000   0.000  -0.325   0.166   0.000   0.000   0.000   0.000
  0.000  -0.005  -0.000  -0.030   0.000   0.000  -0.001   0.000   0.098   0.000   0.000  -0.000   0.151   0.000  -0.000  -0.012
 -0.033   0.000   0.000   0.000   0.002   0.099   0.000   0.000  -0.000   0.002   0.000   0.000   0.000   0.154   0.000   0.000
 -0.000  -0.030  -0.000   0.005   0.000   0.000   0.098   0.000   0.001   0.000   0.000  -0.000   0.000   0.000   0.151   0.000
  0.000   0.000   0.000  -0.007   0.000   0.000   0.000  -0.000  -0.009   0.000  -0.000   0.000  -0.012  -0.000   0.000   0.001
 -0.007   0.000   0.000  -0.000  -0.000  -0.009   0.000   0.000  -0.000  -0.000   0.000   0.000   0.000  -0.013   0.000   0.000
 -0.000  -0.007  -0.000  -0.000  -0.000  -0.000  -0.009   0.000  -0.000   0.000  -0.000  -0.000  -0.000   0.000  -0.012   0.000


------------------------ aborting loop because EDIFF is reached ----------------------------------------


 


 total charge     
 
# of ion       s       p       d       tot
------------------------------------------
    1        0.355   0.308   9.289   9.951
    2        0.355   0.308   9.289   9.951
    3        0.355   0.308   9.289   9.951
    4        0.355   0.308   9.289   9.951
    5        0.830   0.711   9.916  11.458
    6        0.830   0.711   9.916  11.458
    7        0.830   0.711   9.916  11.458
    8        0.830   0.711   9.916  11.458
    9        1.446   2.384   0.042   3.872
   10        1.446   2.384   0.042   3.872
   11        1.446   2.384   0.042   3.872
   12        1.446   2.384   0.042   3.872
   13        1.446   2.384   0.042   3.872
   14        1.446   2.384   0.042   3.872
   15        1.446   2.384   0.042   3.872
   16        1.446   2.384   0.042   3.872
--------------------------------------------------
tot         16.306  23.151  77.156 116.612
 
    CHARGE:  cpu time    0.3088: real time    0.3096
    FORLOC:  cpu time    0.0449: real time    0.0450
    FORNL :  cpu time    4.1817: real time    4.1923
    STRESS:  cpu time   12.8548: real time   12.8889
    FORCOR:  cpu time    0.2547: real time    0.2552
    FORHAR:  cpu time    0.0779: real time    0.0781
    MIXING:  cpu time    0.1852: real time    0.1857
    OFIELD:  cpu time    0.0001: real time    0.0001

  FORCE on cell =-STRESS in cart. coord.  units (eV):
  Direction    XX          YY          ZZ          XY          YZ          ZX
  --------------------------------------------------------------------------------------
  Alpha Z   448.81150   448.81150   448.81150
  Ewald   -3135.78650 -3135.78650 -3118.70827    -0.00000    -0.00000    -0.00000
  Hartree  1481.23786  1481.23786  1490.26695    -0.00000    -0.00000    -0.00000
  E(xc)    -696.17651  -696.17651  -696.17886     0.00000    -0.00000    -0.00000
  Local    -550.43551  -550.43551  -577.59632     0.00000    -0.00000    -0.00000
  n-local   349.17809   349.64112   349.90128    -2.33231    -0.00966    -0.01727
  augment   826.11525   826.11525   825.66876     0.00000     0.00002     0.00002
  Kinetic  1280.71563  1291.10302  1286.23395    -5.61716    -0.20173     0.02522
  Fock        0.00000     0.00000     0.00000     0.00000     0.00000     0.00000
  -------------------------------------------------------------------------------------
  Total       9.08502     9.08502     8.39899     0.00000    -0.00000     0.00000
  in kB      37.46656    37.46656    34.63741     0.00000    -0.00000     0.00000
  external pressure =       36.52 kB  Pullay stress =        0.00 kB


 VOLUME and BASIS-vectors are now :
 -----------------------------------------------------------------------------
  energy-cutoff  :      300.00
  volume of cell :      388.50
      direct lattice vectors                 reciprocal lattice vectors
     5.782400000  0.000000000  0.000000000     0.172938572  0.000000000  0.000000000
     0.000000000  5.782400000  0.000000000     0.000000000  0.172938572  0.000000000
     0.000000000  0.000000000 11.619200000     0.000000000  0.000000000  0.086064445

  length of vectors
     5.782400000  5.782400000 11.619200000     0.172938572  0.172938572  0.086064445


 FORCES acting on ions
    electron-ion (+dipol)            ewald-force                    non-local-force                 convergence-correction
 -----------------------------------------------------------------------------------------------
   -.278E-07 -.266E-07 -.708E-09   -.289E-13 -.147E-13 -.142E-13   0.226E-18 -.836E-19 -.197E-17   -.207E-12 0.685E-12 -.308E-13
   -.266E-07 -.278E-07 -.709E-09   -.426E-13 0.444E-15 -.711E-14   0.617E-19 -.143E-18 -.275E-17   0.554E-12 -.632E-13 0.586E-12
   -.278E-07 -.266E-07 -.704E-09   -.284E-13 -.142E-13 0.426E-13   -.120E-18 -.430E-18 -.117E-17   -.277E-12 0.650E-12 -.348E-13
   -.266E-07 -.278E-07 -.706E-09   -.426E-13 0.000E+00 0.000E+00   0.118E-18 -.142E-18 0.589E-18   0.494E-12 -.956E-13 -.450E-12
   -.313E-07 -.313E-07 0.346E-09   0.568E-13 -.284E-13 0.711E-13   0.537E-18 0.148E-17 0.128E-16   -.961E-12 -.763E-12 -.669E-13
   -.313E-07 -.313E-07 0.345E-09   0.284E-13 0.142E-13 0.568E-13   0.485E-18 -.382E-18 -.501E-17   -.881E-12 -.817E-12 -.529E-12
   -.313E-07 -.313E-07 0.354E-09   0.715E-13 -.302E-13 -.284E-13   -.903E-18 -.219E-17 0.387E-19   -.102E-11 -.791E-12 -.280E-13
   -.313E-07 -.312E-07 0.347E-09   0.426E-13 0.151E-13 -.711E-14   -.683E-18 -.109E-17 -.653E-17   -.937E-12 -.849E-12 0.653E-12
   -.784E-07 -.749E+01 0.381E-07   -.275E-13 0.950E+01 -.284E-13   0.162E-17 -.110E+01 0.105E-16   0.248E-13 0.172E-02 -.150E-12
   -.784E-07 -.749E+01 0.381E-07   -.288E-13 0.950E+01 -.142E-13   -.132E-17 -.110E+01 -.446E-17   0.163E-13 0.172E-02 0.114E-12
   -.784E-07 0.749E+01 -.387E-07   -.150E-13 -.950E+01 -.142E-13   -.167E-17 0.110E+01 0.283E-17   -.235E-13 -.172E-02 -.882E-13
   -.784E-07 0.749E+01 -.387E-07   -.139E-13 -.950E+01 0.284E-13   0.182E-17 0.110E+01 0.236E-17   -.154E-13 -.172E-02 0.185E-12
   0.749E+01 -.784E-07 -.387E-07   -.950E+01 -.133E-13 -.172E-13   0.110E+01 0.357E-17 0.470E-17   -.172E-02 -.100E-13 0.229E-12
   -.749E+01 -.784E-07 0.381E-07   0.950E+01 -.145E-14 -.169E-13   -.110E+01 0.835E-20 -.169E-17   0.172E-02 -.540E-13 0.176E-12
   0.749E+01 -.784E-07 -.387E-07   -.950E+01 -.131E-13 0.296E-13   0.110E+01 -.391E-18 0.452E-17   -.172E-02 -.156E-13 -.169E-12
   -.749E+01 -.784E-07 0.381E-07   0.950E+01 -.803E-15 0.976E-14   -.110E+01 0.233E-18 -.810E-17   0.172E-02 -.484E-13 -.235E-12
 -----------------------------------------------------------------------------------------------
   -.747E-06 -.747E-06 -.396E-08   0.000E+00 0.157E-13 0.905E-13   -.444E-15 0.342E-17 0.664E-17   -.330E-11 -.237E-11 0.161E-12
 
 
 POSITION                                       TOTAL-FORCE (eV/Angst)
 -----------------------------------------------------------------------------------
      0.00000      2.89120      2.90480         0.000000      0.000000      0.000000
      0.00000      0.00000      0.00000        -0.000000      0.000000     -0.000000
      2.89120      0.00000      8.71440         0.000000      0.000000      0.000000
      2.89120      2.89120      5.80960         0.000000      0.000000     -0.000000
      0.00000      2.89120      8.71440         0.000000      0.000000      0.000000
      0.00000      0.00000      5.80960         0.000000      0.000000     -0.000000
      2.89120      0.00000      2.90480        -0.000000      0.000000      0.000000
      2.89120      2.89120      0.00000         0.000000      0.000000      0.000000
      4.33680      1.53234      4.35720        -0.000000      0.906105      0.000000
      1.44560      4.42354     10.16680         0.000000      0.906105      0.000000
      1.44560      4.25006      4.35720         0.000000     -0.906105     -0.000000
      4.33680      1.35886     10.16680         0.000000     -0.906105     -0.000000
      1.35886      1.44560      1.45240        -0.906105      0.000000      0.000000
      4.42354      4.33680      1.45240         0.906105      0.000000      0.000000
      4.25006      4.33680      7.26200        -0.906105      0.000000      0.000000
      1.53234      1.44560      7.26200         0.906105      0.000000     -0.000000
 -----------------------------------------------------------------------------------
    total drift:                               -0.000001     -0.000001     -0.000000


--------------------------------------------------------------------------------------------------------



  FREE ENERGIE OF THE ION-ELECTRON SYSTEM (eV)
  ---------------------------------------------------
  free  energy   TOTEN  =       -60.28360748 eV

  energy  without entropy=      -60.28360704  energy(sigma->0) =      -60.28360726
 


--------------------------------------------------------------------------------------------------------


    POTLOK:  cpu time    0.4306: real time    0.4316


--------------------------------------------------------------------------------------------------------


 writing wavefunctions
     LOOP+:  cpu time  230.7095: real time  231.3178
    4ORBIT:  cpu time    0.0000: real time    0.0000
 


 total charge     
 
# of ion       s       p       d       tot
------------------------------------------
    1        0.355   0.308   9.289   9.951
    2        0.355   0.308   9.289   9.951
    3        0.355   0.308   9.289   9.951
    4        0.355   0.308   9.289   9.951
    5        0.830   0.711   9.916  11.458
    6        0.830   0.711   9.916  11.458
    7        0.830   0.711   9.916  11.458
    8        0.830   0.711   9.916  11.458
    9        1.446   2.384   0.042   3.872
   10        1.446   2.384   0.042   3.872
   11        1.446   2.384   0.042   3.872
   12        1.446   2.384   0.042   3.872
   13        1.446   2.384   0.042   3.872
   14        1.446   2.384   0.042   3.872
   15        1.446   2.384   0.042   3.872
   16        1.446   2.384   0.042   3.872
--------------------------------------------------
tot         16.306  23.151  77.156 116.612
 

 total amount of memory used by VASP MPI-rank0  3330744. kBytes
=======================================================================

   base      :      30000. kBytes
   nonlr-proj:       9081. kBytes
   fftplans  :     106828. kBytes
   grid      :      50595. kBytes
   one-center:        248. kBytes
   wavefun   :    3133992. kBytes
 
  
  
 General timing and accounting informations for this job:
 ========================================================
  
                  Total CPU time used (sec):      253.809
                            User time (sec):      224.449
                          System time (sec):       29.361
                         Elapsed time (sec):      254.651
  
                   Maximum memory used (kb):     3948336.
                   Average memory used (kb):           0.
  
                          Minor page faults:       178711
                          Major page faults:           29
                 Voluntary context switches:         8167
